<?xml version="1.0" encoding="ISO-8859-1"?>
<modeling>
 <generator>
  <i name="program" type="string">vasp </i>
  <i name="version" type="string">5.4.1  </i>
  <i name="subversion" type="string">24Jun15 (build Oct  9 2015 14:58:31) complex                          parallel </i>
  <i name="platform" type="string">IFC91_ompi </i>
  <i name="date" type="string">2017 09 13 </i>
  <i name="time" type="string">10:58:57 </i>
 </generator>
 <incar>
  <i type="string" name="PREC">accurate</i>
  <i type="string" name="ALGO"> Fast</i>
  <i type="int" name="IBRION">     2</i>
  <i name="EDIFF">      0.00000001</i>
  <i type="int" name="NSW">    30</i>
  <i type="int" name="ISIF">     2</i>
  <i type="string" name="LREAL"> A</i>
  <i type="logical" name="LWAVE"> F  </i>
  <i type="logical" name="LCHARG"> F  </i>
  <v type="int" name="KPOINT_BSE">    -1     0     0     0</v>
  <i type="string" name="GGA"> PE</i>
 </incar>
 <kpoints>
  <generation param="Monkhorst-Pack">
   <v type="int" name="divisions">       3        3        3 </v>
   <v name="usershift">      0.00000000       0.00000000       0.00000000 </v>
   <v name="genvec1">      0.33333333       0.00000000       0.00000000 </v>
   <v name="genvec2">      0.00000000       0.33333333       0.00000000 </v>
   <v name="genvec3">      0.00000000      -0.00000000       0.33333333 </v>
   <v name="shift">      0.00000000       0.00000000       0.00000000 </v>
  </generation>
  <varray name="kpointlist" >
   <v>       0.00000000       0.00000000       0.00000000 </v>
   <v>       0.33333333       0.00000000       0.00000000 </v>
   <v>       0.00000000       0.33333333       0.00000000 </v>
   <v>       0.33333333       0.33333333       0.00000000 </v>
   <v>       0.00000000       0.00000000       0.33333333 </v>
   <v>       0.33333333       0.00000000       0.33333333 </v>
   <v>       0.00000000       0.33333333       0.33333333 </v>
   <v>       0.33333333       0.33333333       0.33333333 </v>
   <v>       0.00000000      -0.33333333       0.33333333 </v>
   <v>       0.33333333      -0.33333333       0.33333333 </v>
  </varray>
  <varray name="weights" >
   <v>       0.03703704 </v>
   <v>       0.07407407 </v>
   <v>       0.07407407 </v>
   <v>       0.14814815 </v>
   <v>       0.07407407 </v>
   <v>       0.14814815 </v>
   <v>       0.07407407 </v>
   <v>       0.14814815 </v>
   <v>       0.07407407 </v>
   <v>       0.14814815 </v>
  </varray>
 </kpoints>
 <parameters>
  <separator name="general" >
   <i type="string" name="SYSTEM">unknown system</i>
   <i type="logical" name="LCOMPAT"> F  </i>
  </separator>
  <separator name="electronic" >
   <i type="string" name="PREC">accura</i>
   <i name="ENMAX">    400.00000000</i>
   <i name="ENAUG">    605.39200000</i>
   <i name="EDIFF">      0.00000001</i>
   <i type="int" name="IALGO">    68</i>
   <i type="int" name="IWAVPR">    11</i>
   <i type="int" name="NBANDS">    24</i>
   <i name="NELECT">     32.00000000</i>
   <i type="int" name="TURBO">     0</i>
   <i type="int" name="IRESTART">     0</i>
   <i type="int" name="NREBOOT">     0</i>
   <i type="int" name="NMIN">     0</i>
   <i name="EREF">      0.00000000</i>
   <separator name="electronic smearing" >
    <i type="int" name="ISMEAR">     1</i>
    <i name="SIGMA">      0.20000000</i>
    <i name="KSPACING">      0.50000000</i>
    <i type="logical" name="KGAMMA"> T  </i>
   </separator>
   <separator name="electronic projectors" >
    <i type="logical" name="LREAL"> T  </i>
    <v name="ROPT">     -0.00025000     -0.00025000</v>
    <i type="int" name="LMAXPAW">  -100</i>
    <i type="int" name="LMAXMIX">     2</i>
    <i type="logical" name="NLSPLINE"> F  </i>
   </separator>
   <separator name="electronic startup" >
    <i type="int" name="ISTART">     0</i>
    <i type="int" name="ICHARG">     2</i>
    <i type="int" name="INIWAV">     1</i>
   </separator>
   <separator name="electronic spin" >
    <i type="int" name="ISPIN">     1</i>
    <i type="logical" name="LNONCOLLINEAR"> F  </i>
    <v name="MAGMOM">      1.00000000      1.00000000      1.00000000      1.00000000      1.00000000      1.00000000      1.00000000      1.00000000</v>
    <i name="NUPDOWN">     -1.00000000</i>
    <i type="logical" name="LSORBIT"> F  </i>
    <v name="SAXIS">      0.00000000      0.00000000      1.00000000</v>
    <i type="logical" name="LSPIRAL"> F  </i>
    <v name="QSPIRAL">      0.00000000      0.00000000      0.00000000</v>
    <i type="logical" name="LZEROZ"> F  </i>
   </separator>
   <separator name="electronic exchange-correlation" >
    <i type="logical" name="LASPH"> F  </i>
    <i type="logical" name="LMETAGGA"> F  </i>
   </separator>
   <separator name="electronic convergence" >
    <i type="int" name="NELM">    60</i>
    <i type="int" name="NELMDL">    -5</i>
    <i type="int" name="NELMIN">     2</i>
    <i name="ENINI">    400.00000000</i>
    <separator name="electronic convergence detail" >
     <i type="logical" name="LDIAG"> T  </i>
     <i type="logical" name="LSUBROT"> F  </i>
     <i name="WEIMIN">      0.00100000</i>
     <i name="EBREAK">      0.00000000</i>
     <i name="DEPER">      0.30000000</i>
     <i type="int" name="NRMM">     4</i>
     <i name="TIME">      0.40000000</i>
    </separator>
   </separator>
   <separator name="electronic mixer" >
    <i name="AMIX">      0.40000000</i>
    <i name="BMIX">      1.00000000</i>
    <i name="AMIN">      0.10000000</i>
    <i name="AMIX_MAG">      1.60000000</i>
    <i name="BMIX_MAG">      1.00000000</i>
    <separator name="electronic mixer details" >
     <i type="int" name="IMIX">     4</i>
     <i type="logical" name="MIXFIRST"> F  </i>
     <i type="int" name="MAXMIX">   -45</i>
     <i name="WC">    100.00000000</i>
     <i type="int" name="INIMIX">     1</i>
     <i type="int" name="MIXPRE">     1</i>
     <i type="int" name="MREMOVE">     5</i>
    </separator>
   </separator>
   <separator name="electronic dipolcorrection" >
    <i type="logical" name="LDIPOL"> F  </i>
    <i type="logical" name="LMONO"> F  </i>
    <i type="int" name="IDIPOL">     0</i>
    <i name="EPSILON">      1.00000000</i>
    <v name="DIPOL">   -100.00000000   -100.00000000   -100.00000000</v>
    <i name="EFIELD">      0.00000000</i>
   </separator>
  </separator>
  <separator name="grids" >
   <i type="int" name="NGX">    28</i>
   <i type="int" name="NGY">    28</i>
   <i type="int" name="NGZ">    28</i>
   <i type="int" name="NGXF">    56</i>
   <i type="int" name="NGYF">    56</i>
   <i type="int" name="NGZF">    56</i>
   <i type="logical" name="ADDGRID"> F  </i>
  </separator>
  <separator name="ionic" >
   <i type="int" name="NSW">    30</i>
   <i type="int" name="IBRION">     2</i>
   <i type="int" name="ISIF">     2</i>
   <i name="PSTRESS">      0.00000000</i>
   <i name="EDIFFG">      0.00000010</i>
   <i type="int" name="NFREE">     1</i>
   <i name="POTIM">      0.50000000</i>
   <i name="SMASS">     -3.00000000</i>
   <i name="SCALEE">      1.00000000</i>
  </separator>
  <separator name="ionic md" >
   <i name="TEBEG">      0.00010000</i>
   <i name="TEEND">      0.00010000</i>
   <i type="int" name="NBLOCK">     1</i>
   <i type="int" name="KBLOCK">    30</i>
   <i type="int" name="NPACO">   256</i>
   <i name="APACO">     16.00000000</i>
  </separator>
  <separator name="symmetry" >
   <i type="int" name="ISYM">     2</i>
   <i name="SYMPREC">      0.00001000</i>
  </separator>
  <separator name="dos" >
   <i type="logical" name="LORBIT"> T  </i>
   <v name="RWIGS">     -1.00000000     -1.00000000</v>
   <i type="int" name="NEDOS">   301</i>
   <i name="EMIN">     10.00000000</i>
   <i name="EMAX">    -10.00000000</i>
   <i name="EFERMI">      0.00000000</i>
  </separator>
  <separator name="writing" >
   <i type="int" name="NWRITE">     2</i>
   <i type="logical" name="LWAVE"> F  </i>
   <i type="logical" name="LCHARG"> F  </i>
   <i type="logical" name="LPARD"> F  </i>
   <i type="logical" name="LVTOT"> F  </i>
   <i type="logical" name="LVHAR"> F  </i>
   <i type="logical" name="LELF"> F  </i>
   <i type="logical" name="LOPTICS"> F  </i>
   <v name="STM">      0.00000000      0.00000000      0.00000000      0.00000000      0.00000000      0.00000000      0.00000000</v>
  </separator>
  <separator name="performance" >
   <i type="int" name="NPAR">     4</i>
   <i type="int" name="NSIM">     4</i>
   <i type="int" name="NBLK">    -1</i>
   <i type="logical" name="LPLANE"> T  </i>
   <i type="logical" name="LSCALAPACK"> T  </i>
   <i type="logical" name="LSCAAWARE"> F  </i>
   <i type="logical" name="LSCALU"> F  </i>
   <i type="logical" name="LASYNC"> F  </i>
   <i type="logical" name="LORBITALREAL"> F  </i>
  </separator>
  <separator name="miscellaneous" >
   <i type="int" name="IDIOT">     3</i>
   <i type="logical" name="LMUSIC"> F  </i>
   <v name="POMASS">     24.30500000     16.00000000</v>
   <v name="DARWINR">      0.00000000      0.00000000</v>
   <v name="DARWINV">      1.00000000      1.00000000</v>
   <i type="logical" name="LCORR"> T  </i>
  </separator>
  <i type="logical" name="GGA_COMPAT"> T  </i>
  <i type="logical" name="LBERRY"> F  </i>
  <i type="int" name="ICORELEVEL">     0</i>
  <i type="logical" name="LDAU"> F  </i>
  <i type="int" name="I_CONSTRAINED_M">     0</i>
  <separator name="electronic exchange-correlation" >
   <i type="string" name="GGA">PE</i>
   <i type="int" name="VOSKOWN">     0</i>
   <i type="logical" name="LHFCALC"> F  </i>
   <i type="string" name="PRECFOCK"></i>
   <i type="logical" name="LSYMGRAD"> F  </i>
   <i type="logical" name="LHFONE"> F  </i>
   <i type="logical" name="LRHFCALC"> F  </i>
   <i type="logical" name="LTHOMAS"> F  </i>
   <i type="logical" name="LMODELHF"> F  </i>
   <i name="ENCUT4O">     -1.00000000</i>
   <i type="int" name="EXXOEP">     0</i>
   <i type="int" name="FOURORBIT">     0</i>
   <i name="AEXX">      0.00000000</i>
   <i name="HFALPHA">      0.00000000</i>
   <i name="MCALPHA">      0.00000000</i>
   <i name="ALDAX">      1.00000000</i>
   <i name="AGGAX">      1.00000000</i>
   <i name="ALDAC">      1.00000000</i>
   <i name="AGGAC">      1.00000000</i>
   <i type="int" name="NKREDX">     1</i>
   <i type="int" name="NKREDY">     1</i>
   <i type="int" name="NKREDZ">     1</i>
   <i type="logical" name="SHIFTRED"> F  </i>
   <i type="logical" name="ODDONLY"> F  </i>
   <i type="logical" name="EVENONLY"> F  </i>
   <i type="int" name="LMAXFOCK">     0</i>
   <i type="int" name="NMAXFOCKAE">     0</i>
   <i type="logical" name="LFOCKAEDFT"> F  </i>
   <i name="HFSCREEN">      0.00000000</i>
   <i name="HFSCREENC">      0.00000000</i>
   <i type="int" name="NBANDSGWLOW">     0</i>
  </separator>
  <separator name="vdW DFT" >
   <i type="logical" name="LUSE_VDW"> F  </i>
   <i name="Zab_VDW">     -0.84910000</i>
   <i name="PARAM1">      0.12340000</i>
   <i name="PARAM2">      1.00000000</i>
   <i name="PARAM3">      0.00000000</i>
  </separator>
  <separator name="model GW" >
   <i type="int" name="MODEL_GW">     0</i>
   <i name="MODEL_EPS0">      5.55847566</i>
   <i name="MODEL_ALPHA">      1.00000000</i>
  </separator>
  <separator name="linear response parameters" >
   <i type="logical" name="LEPSILON"> F  </i>
   <i type="logical" name="LRPA"> F  </i>
   <i type="logical" name="LNABLA"> F  </i>
   <i type="logical" name="LVEL"> F  </i>
   <i type="int" name="KINTER">     0</i>
   <i name="CSHIFT">      0.10000000</i>
   <i name="OMEGAMAX">     -1.00000000</i>
   <i name="DEG_THRESHOLD">      0.00200000</i>
  </separator>
  <separator name="orbital magnetization" >
   <i type="logical" name="NUCIND"> F  </i>
   <v name="MAGPOS">      0.00000000      0.00000000      0.00000000</v>
   <i type="logical" name="LNICSALL"> T  </i>
   <i type="logical" name="ORBITALMAG"> F  </i>
   <i type="logical" name="LMAGBLOCH"> F  </i>
   <i type="logical" name="LCHIMAG"> F  </i>
   <i type="logical" name="LGAUGE"> T  </i>
   <i type="int" name="MAGATOM">     0</i>
   <v name="MAGDIPOL">      0.00000000      0.00000000      0.00000000</v>
   <v name="AVECCONST">      0.00000000      0.00000000      0.00000000</v>
  </separator>
  <separator name="response functions" >
   <i type="logical" name="LADDER"> F  </i>
   <i type="logical" name="LFXC"> F  </i>
   <i type="logical" name="LHARTREE"> T  </i>
   <i type="int" name="IBSE">     0</i>
   <v type="int" name="KPOINT">    -1     0     0     0</v>
   <i type="logical" name="LTCTE"> F  </i>
   <i type="logical" name="LTETE"> F  </i>
   <i type="logical" name="LTRIPLET"> F  </i>
   <i type="logical" name="LFXCEPS"> F  </i>
   <i type="logical" name="LFXHEG"> F  </i>
   <i type="int" name="NATURALO">     0</i>
   <i type="logical" name="L2ORDER"> F  </i>
   <i type="logical" name="LUSEW"> F  </i>
   <i name="ENCUTGW">     -2.00000000</i>
   <i name="ENCUTGWSOFT">     -2.00000000</i>
   <i name="ENCUTLF">     -1.00000000</i>
   <i type="int" name="LMAXMP2">    -1</i>
   <i name="SCISSOR">      0.00000000</i>
   <i type="int" name="NOMEGA">     0</i>
   <i type="int" name="NOMEGAR">     0</i>
   <i type="int" name="NBANDSGW">    -1</i>
   <i type="int" name="NBANDSO">    -1</i>
   <i type="int" name="NBANDSV">    -1</i>
   <i type="int" name="NELM">     1</i>
   <i type="int" name="NELMHF">     1</i>
   <i type="int" name="DIM">     3</i>
   <i type="int" name="ANTIRES">     0</i>
   <i name="OMEGAMAX">    -30.00000000</i>
   <i name="OMEGAMIN">    -30.00000000</i>
   <i name="OMEGATL">   -200.00000000</i>
   <i type="int" name="OMEGAGRID">     0</i>
   <i name="CSHIFT">     -0.10000000</i>
   <i type="logical" name="SELFENERGY"> F  </i>
   <i type="logical" name="LSPECTRAL"> F  </i>
   <i type="logical" name="LSPECTRALGW"> F  </i>
   <i type="logical" name="LSINGLES"> F  </i>
   <i type="logical" name="LFERMIGW"> F  </i>
   <i type="logical" name="ODDONLYGW"> F  </i>
   <i type="logical" name="EVENONLYGW"> F  </i>
   <i type="int" name="NKREDLFX">     1</i>
   <i type="int" name="NKREDLFY">     1</i>
   <i type="int" name="NKREDLFZ">     1</i>
   <i type="int" name="MAXMEM">  1800</i>
   <i type="int" name="TELESCOPE">     0</i>
   <i type="int" name="TAUPAR">     1</i>
   <i type="int" name="OMEGAPAR">    -1</i>
   <i name="LAMBDA">      1.00000000</i>
  </separator>
  <separator name="External order field" >
   <i name="OFIELD_KAPPA">      0.00000000</i>
   <v name="OFIELD_K">      0.00000000      0.00000000      0.00000000</v>
   <i name="OFIELD_Q6_NEAR">      0.00000000</i>
   <i name="OFIELD_Q6_FAR">      0.00000000</i>
   <i name="OFIELD_A">      0.00000000</i>
  </separator>
 </parameters>
 <atominfo>
  <atoms>       8 </atoms>
  <types>       2 </types>
  <array name="atoms" >
   <dimension dim="1">ion</dimension>
   <field type="string">element</field>
   <field type="int">atomtype</field>
   <set>
    <rc><c>Mg</c><c>   1</c></rc>
    <rc><c>Mg</c><c>   1</c></rc>
    <rc><c>Mg</c><c>   1</c></rc>
    <rc><c>Mg</c><c>   1</c></rc>
    <rc><c>O </c><c>   2</c></rc>
    <rc><c>O </c><c>   2</c></rc>
    <rc><c>O </c><c>   2</c></rc>
    <rc><c>O </c><c>   2</c></rc>
   </set>
  </array>
  <array name="atomtypes" >
   <dimension dim="1">type</dimension>
   <field type="int">atomspertype</field>
   <field type="string">element</field>
   <field>mass</field>
   <field>valence</field>
   <field type="string">pseudopotential</field>
   <set>
    <rc><c>   4</c><c>Mg</c><c>     24.30500000</c><c>      2.00000000</c><c>  PAW_PBE Mg 13Apr2007                  </c></rc>
    <rc><c>   4</c><c>O </c><c>     16.00000000</c><c>      6.00000000</c><c>  PAW_PBE O 08Apr2002                   </c></rc>
   </set>
  </array>
 </atominfo>
 <structure name="initialpos" >
  <crystal>
   <varray name="basis" >
    <v>       4.20047253       0.00000000       0.00000000 </v>
    <v>       0.00000000       4.20047253       0.08400945 </v>
    <v>       0.00000000       0.00000000       4.20047253 </v>
   </varray>
   <i name="volume">     74.11300886 </i>
   <varray name="rec_basis" >
    <v>       0.23806845       0.00000000       0.00000000 </v>
    <v>       0.00000000       0.23806845       0.00000000 </v>
    <v>       0.00000000      -0.00476137       0.23806845 </v>
   </varray>
  </crystal>
  <varray name="positions" >
   <v>       0.00000000       0.00000000       0.00000000 </v>
   <v>       0.00000000       0.50000000       0.50000000 </v>
   <v>       0.50000000       0.00000000       0.50000000 </v>
   <v>       0.50000000       0.50000000       0.00000000 </v>
   <v>       0.50000000       0.50000000       0.50000000 </v>
   <v>       0.50000000       0.00000000       0.00000000 </v>
   <v>       0.00000000       0.50000000       0.00000000 </v>
   <v>       0.00000000       0.00000000       0.50000000 </v>
  </varray>
 </structure>
 <calculation>
  <scstep>
   <time name="dav">    0.92    0.93</time>
   <time name="total">    0.99    1.00</time>
   <energy>
    <i name="alphaZ">     78.86236517 </i>
    <i name="ewald">  -1436.71910049 </i>
    <i name="hartreedc">   -482.40722733 </i>
    <i name="XCdc">    -81.62445392 </i>
    <i name="pawpsdc">   1647.42468863 </i>
    <i name="pawaedc">  -1447.16842517 </i>
    <i name="eentropy">     -0.00681174 </i>
    <i name="bandstr">      4.23561982 </i>
    <i name="atom">   1821.19987801 </i>
    <i name="e_fr_energy">    103.79653299 </i>
    <i name="e_wo_entrp">    103.80334473 </i>
    <i name="e_0_energy">    103.79880357 </i>
   </energy>
  </scstep>
  <scstep>
   <time name="dav">    1.09    1.09</time>
   <time name="total">    1.09    1.10</time>
   <energy>
    <i name="e_fr_energy">    -47.08522708 </i>
    <i name="e_wo_entrp">    -47.08565851 </i>
    <i name="e_0_energy">    -47.08537089 </i>
   </energy>
  </scstep>
  <scstep>
   <time name="dav">    1.04    1.05</time>
   <time name="total">    1.05    1.05</time>
   <energy>
    <i name="e_fr_energy">    -53.75817623 </i>
    <i name="e_wo_entrp">    -53.76575553 </i>
    <i name="e_0_energy">    -53.76070266 </i>
   </energy>
  </scstep>
  <scstep>
   <time name="dav">    0.89    0.90</time>
   <time name="total">    0.90    0.90</time>
   <energy>
    <i name="e_fr_energy">    -53.78958517 </i>
    <i name="e_wo_entrp">    -53.79737347 </i>
    <i name="e_0_energy">    -53.79218127 </i>
   </energy>
  </scstep>
  <scstep>
   <time name="dav">    1.03    1.03</time>
   <time name="total">    1.13    1.14</time>
   <energy>
    <i name="e_fr_energy">    -53.78976498 </i>
    <i name="e_wo_entrp">    -53.79755690 </i>
    <i name="e_0_energy">    -53.79236229 </i>
   </energy>
  </scstep>
  <scstep>
   <time name="diag">    0.10    0.10</time>
   <time name="diis">    0.51    0.51</time>
   <time name="orth">    0.01    0.01</time>
   <time name="total">    0.78    0.78</time>
   <energy>
    <i name="e_fr_energy">    -47.77643385 </i>
    <i name="e_wo_entrp">    -47.77846944 </i>
    <i name="e_0_energy">    -47.77711238 </i>
   </energy>
  </scstep>
  <scstep>
   <time name="diag">    0.10    0.10</time>
   <time name="diis">    0.52    0.52</time>
   <time name="orth">    0.01    0.01</time>
   <time name="total">    0.78    0.79</time>
   <energy>
    <i name="e_fr_energy">    -47.69744542 </i>
    <i name="e_wo_entrp">    -47.69947019 </i>
    <i name="e_0_energy">    -47.69812034 </i>
   </energy>
  </scstep>
  <scstep>
   <time name="diag">    0.10    0.10</time>
   <time name="diis">    0.53    0.53</time>
   <time name="orth">    0.01    0.01</time>
   <time name="total">    0.80    0.80</time>
   <energy>
    <i name="e_fr_energy">    -47.67827323 </i>
    <i name="e_wo_entrp">    -47.68033269 </i>
    <i name="e_0_energy">    -47.67895972 </i>
   </energy>
  </scstep>
  <scstep>
   <time name="diag">    0.10    0.10</time>
   <time name="diis">    0.52    0.52</time>
   <time name="orth">    0.01    0.01</time>
   <time name="total">    0.79    0.79</time>
   <energy>
    <i name="e_fr_energy">    -47.67835242 </i>
    <i name="e_wo_entrp">    -47.68033901 </i>
    <i name="e_0_energy">    -47.67901462 </i>
   </energy>
  </scstep>
  <scstep>
   <time name="diag">    0.10    0.10</time>
   <time name="diis">    0.53    0.53</time>
   <time name="orth">    0.01    0.01</time>
   <time name="total">    0.80    0.80</time>
   <energy>
    <i name="e_fr_energy">    -47.67455609 </i>
    <i name="e_wo_entrp">    -47.67656944 </i>
    <i name="e_0_energy">    -47.67522721 </i>
   </energy>
  </scstep>
  <scstep>
   <time name="diag">    0.10    0.10</time>
   <time name="diis">    0.51    0.51</time>
   <time name="orth">    0.01    0.01</time>
   <time name="total">    0.78    0.78</time>
   <energy>
    <i name="e_fr_energy">    -47.67442966 </i>
    <i name="e_wo_entrp">    -47.67644944 </i>
    <i name="e_0_energy">    -47.67510292 </i>
   </energy>
  </scstep>
  <scstep>
   <time name="diag">    0.10    0.10</time>
   <time name="diis">    0.53    0.53</time>
   <time name="orth">    0.01    0.01</time>
   <time name="total">    0.80    0.80</time>
   <energy>
    <i name="e_fr_energy">    -47.67443044 </i>
    <i name="e_wo_entrp">    -47.67644952 </i>
    <i name="e_0_energy">    -47.67510347 </i>
   </energy>
  </scstep>
  <scstep>
   <time name="diag">    0.10    0.10</time>
   <time name="diis">    0.53    0.53</time>
   <time name="orth">    0.01    0.01</time>
   <time name="total">    0.80    0.80</time>
   <energy>
    <i name="e_fr_energy">    -47.67443053 </i>
    <i name="e_wo_entrp">    -47.67645001 </i>
    <i name="e_0_energy">    -47.67510369 </i>
   </energy>
  </scstep>
  <scstep>
   <time name="diag">    0.10    0.10</time>
   <time name="diis">    0.43    0.43</time>
   <time name="orth">    0.01    0.01</time>
   <time name="total">    0.70    0.70</time>
   <energy>
    <i name="e_fr_energy">    -47.67443051 </i>
    <i name="e_wo_entrp">    -47.67644991 </i>
    <i name="e_0_energy">    -47.67510364 </i>
   </energy>
  </scstep>
  <scstep>
   <time name="diag">    0.10    0.10</time>
   <time name="diis">    0.52    0.53</time>
   <time name="orth">    0.01    0.01</time>
   <time name="total">    0.79    0.80</time>
   <energy>
    <i name="e_fr_energy">    -47.67443047 </i>
    <i name="e_wo_entrp">    -47.67644974 </i>
    <i name="e_0_energy">    -47.67510356 </i>
   </energy>
  </scstep>
  <scstep>
   <time name="diag">    0.10    0.10</time>
   <time name="diis">    0.36    0.36</time>
   <time name="orth">    0.00    0.01</time>
   <time name="total">    0.53    0.53</time>
   <energy>
    <i name="alphaZ">     78.86236517 </i>
    <i name="ewald">  -1436.71910049 </i>
    <i name="hartreedc">   -562.24386097 </i>
    <i name="XCdc">    -75.41410005 </i>
    <i name="pawpsdc">   2247.33484118 </i>
    <i name="pawaedc">  -2048.16933551 </i>
    <i name="eentropy">      0.00201929 </i>
    <i name="bandstr">    -72.52713709 </i>
    <i name="atom">   1821.19987801 </i>
    <i name="e_fr_energy">    -47.67443047 </i>
    <i name="e_wo_entrp">    -47.67644976 </i>
    <i name="e_0_energy">    -47.67510357 </i>
   </energy>
  </scstep>
  <structure>
   <crystal>
    <varray name="basis" >
     <v>       4.20047253       0.00000000       0.00000000 </v>
     <v>       0.00000000       4.20047253       0.08400945 </v>
     <v>       0.00000000       0.00000000       4.20047253 </v>
    </varray>
    <i name="volume">     74.11300886 </i>
    <varray name="rec_basis" >
     <v>       0.23806845       0.00000000       0.00000000 </v>
     <v>       0.00000000       0.23806845       0.00000000 </v>
     <v>       0.00000000      -0.00476137       0.23806845 </v>
    </varray>
   </crystal>
   <varray name="positions" >
    <v>       0.00000000       0.00000000       0.00000000 </v>
    <v>       0.00000000       0.50000000       0.50000000 </v>
    <v>       0.50000000       0.00000000       0.50000000 </v>
    <v>       0.50000000       0.50000000       0.00000000 </v>
    <v>       0.50000000       0.50000000       0.50000000 </v>
    <v>       0.50000000       0.00000000       0.00000000 </v>
    <v>       0.00000000       0.50000000       0.00000000 </v>
    <v>       0.00000000       0.00000000       0.50000000 </v>
   </varray>
  </structure>
  <varray name="forces" >
   <v>      -0.00000000      -0.00000000      -0.00000000 </v>
   <v>      -0.00000000      -0.00000000       0.00000000 </v>
   <v>      -0.00000000      -0.00000000       0.00000000 </v>
   <v>      -0.00000000       0.00000000      -0.00000000 </v>
   <v>      -0.00000000      -0.00000000       0.00000000 </v>
   <v>      -0.00000000      -0.00000000      -0.00000000 </v>
   <v>       0.00000000       0.00000000       0.00000000 </v>
   <v>       0.00000000       0.00000000       0.00000000 </v>
  </varray>
  <varray name="stress" >
   <v>       0.90513592       0.00000000       0.00000000 </v>
   <v>       0.00000000       2.91491271     -28.57216829 </v>
   <v>       0.00000000     -28.57216830       2.31387925 </v>
  </varray>
  <energy>
   <i name="e_fr_energy">    -47.67443047 </i>
   <i name="e_wo_entrp">    -47.67510357 </i>
   <i name="e_0_energy">      0.00201929 </i>
  </energy>
  <time name="totalsc">   15.16   15.25</time>
  <eigenvalues>
   <array>
    <dimension dim="1">band</dimension>
    <dimension dim="2">kpoint</dimension>
    <dimension dim="3">spin</dimension>
    <field>eigene</field>
    <field>occ</field>
    <set>
     <set comment="spin 1">
      <set comment="kpoint 1">
       <r>  -14.0608    1.0000 </r>
       <r>  -12.4983    1.0000 </r>
       <r>  -12.4969    1.0000 </r>
       <r>  -12.4963    1.0000 </r>
       <r>   -0.8756    1.0000 </r>
       <r>   -0.8753    1.0000 </r>
       <r>   -0.8749    1.0000 </r>
       <r>    1.7616    1.0000 </r>
       <r>    1.8809    1.0000 </r>
       <r>    1.8811    1.0000 </r>
       <r>    1.8815    1.0000 </r>
       <r>    1.8830    1.0000 </r>
       <r>    2.0021    1.0000 </r>
       <r>    3.1654    1.0336 </r>
       <r>    3.2374    1.0236 </r>
       <r>    3.3130    0.9236 </r>
       <r>    8.0502   -0.0000 </r>
       <r>   12.3292    0.0000 </r>
       <r>   12.3867    0.0000 </r>
       <r>   12.3888    0.0000 </r>
       <r>   13.3107    0.0000 </r>
       <r>   13.3110    0.0000 </r>
       <r>   13.3729    0.0000 </r>
       <r>   16.4413    0.0000 </r>
      </set>
      <set comment="kpoint 2">
       <r>  -13.6866    1.0000 </r>
       <r>  -12.9035    1.0000 </r>
       <r>  -12.4551    1.0000 </r>
       <r>  -12.4548    1.0000 </r>
       <r>   -0.3443    1.0000 </r>
       <r>   -0.3437    1.0000 </r>
       <r>   -0.2178    1.0000 </r>
       <r>    0.9823    1.0000 </r>
       <r>    0.9827    1.0000 </r>
       <r>    1.5597    1.0000 </r>
       <r>    1.5604    1.0000 </r>
       <r>    1.6479    1.0000 </r>
       <r>    2.0647    1.0000 </r>
       <r>    2.2910    1.0000 </r>
       <r>    2.7597    1.0000 </r>
       <r>    2.9375    1.0012 </r>
       <r>    9.9558    0.0000 </r>
       <r>   12.5892    0.0000 </r>
       <r>   13.3478    0.0000 </r>
       <r>   13.8407    0.0000 </r>
       <r>   13.8429    0.0000 </r>
       <r>   14.7643    0.0000 </r>
       <r>   15.4797    0.0000 </r>
       <r>   15.8215    0.0000 </r>
      </set>
      <set comment="kpoint 3">
       <r>  -13.6864    1.0000 </r>
       <r>  -12.9024    1.0000 </r>
       <r>  -12.4565    1.0000 </r>
       <r>  -12.4560    1.0000 </r>
       <r>   -0.3445    1.0000 </r>
       <r>   -0.3442    1.0000 </r>
       <r>   -0.2169    1.0000 </r>
       <r>    0.9708    1.0000 </r>
       <r>    0.9822    1.0000 </r>
       <r>    1.5585    1.0000 </r>
       <r>    1.5720    1.0000 </r>
       <r>    1.6476    1.0000 </r>
       <r>    2.1765    1.0000 </r>
       <r>    2.1793    1.0000 </r>
       <r>    2.8480    1.0001 </r>
       <r>    2.8495    1.0001 </r>
       <r>    9.9567    0.0000 </r>
       <r>   12.6303    0.0000 </r>
       <r>   13.3074    0.0000 </r>
       <r>   13.7881    0.0000 </r>
       <r>   13.8435    0.0000 </r>
       <r>   14.8215    0.0000 </r>
       <r>   15.0201    0.0000 </r>
       <r>   15.8216    0.0000 </r>
      </set>
      <set comment="kpoint 4">
       <r>  -13.3706    1.0000 </r>
       <r>  -12.7517    1.0000 </r>
       <r>  -12.7512    1.0000 </r>
       <r>  -12.5254    1.0000 </r>
       <r>   -0.3211    1.0000 </r>
       <r>   -0.3197    1.0000 </r>
       <r>   -0.0080    1.0000 </r>
       <r>    0.1555    1.0000 </r>
       <r>    0.6026    1.0000 </r>
       <r>    1.3730    1.0000 </r>
       <r>    1.3750    1.0000 </r>
       <r>    2.2158    1.0000 </r>
       <r>    2.2194    1.0000 </r>
       <r>    2.2301    1.0000 </r>
       <r>    2.2971    1.0000 </r>
       <r>    2.9215    1.0009 </r>
       <r>   11.0134    0.0000 </r>
       <r>   13.3236    0.0000 </r>
       <r>   13.3379    0.0000 </r>
       <r>   13.6087    0.0000 </r>
       <r>   14.3754    0.0000 </r>
       <r>   14.3855    0.0000 </r>
       <r>   15.5175    0.0000 </r>
       <r>   15.5253    0.0000 </r>
      </set>
      <set comment="kpoint 5">
       <r>  -13.6862    1.0000 </r>
       <r>  -12.9019    1.0000 </r>
       <r>  -12.4565    1.0000 </r>
       <r>  -12.4563    1.0000 </r>
       <r>   -0.3449    1.0000 </r>
       <r>   -0.3440    1.0000 </r>
       <r>   -0.2167    1.0000 </r>
       <r>    0.9713    1.0000 </r>
       <r>    0.9831    1.0000 </r>
       <r>    1.5579    1.0000 </r>
       <r>    1.5707    1.0000 </r>
       <r>    1.6473    1.0000 </r>
       <r>    2.1764    1.0000 </r>
       <r>    2.1781    1.0000 </r>
       <r>    2.8475    1.0001 </r>
       <r>    2.8498    1.0001 </r>
       <r>    9.9567    0.0000 </r>
       <r>   12.6302    0.0000 </r>
       <r>   13.3057    0.0000 </r>
       <r>   13.7880    0.0000 </r>
       <r>   13.8455    0.0000 </r>
       <r>   14.8105    0.0000 </r>
       <r>   15.1445    0.0000 </r>
       <r>   15.8224    0.0000 </r>
      </set>
      <set comment="kpoint 6">
       <r>  -13.3705    1.0000 </r>
       <r>  -12.7517    1.0000 </r>
       <r>  -12.7509    1.0000 </r>
       <r>  -12.5255    1.0000 </r>
       <r>   -0.3215    1.0000 </r>
       <r>   -0.3201    1.0000 </r>
       <r>   -0.0083    1.0000 </r>
       <r>    0.1552    1.0000 </r>
       <r>    0.6019    1.0000 </r>
       <r>    1.3735    1.0000 </r>
       <r>    1.3748    1.0000 </r>
       <r>    2.2157    1.0000 </r>
       <r>    2.2189    1.0000 </r>
       <r>    2.2307    1.0000 </r>
       <r>    2.2974    1.0000 </r>
       <r>    2.9215    1.0009 </r>
       <r>   11.0133    0.0000 </r>
       <r>   13.3240    0.0000 </r>
       <r>   13.3381    0.0000 </r>
       <r>   13.6101    0.0000 </r>
       <r>   14.3734    0.0000 </r>
       <r>   14.3849    0.0000 </r>
       <r>   15.5162    0.0000 </r>
       <r>   15.5225    0.0000 </r>
      </set>
      <set comment="kpoint 7">
       <r>  -13.3878    1.0000 </r>
       <r>  -12.7311    1.0000 </r>
       <r>  -12.7308    1.0000 </r>
       <r>  -12.5466    1.0000 </r>
       <r>   -0.3210    1.0000 </r>
       <r>   -0.3210    1.0000 </r>
       <r>   -0.0450    1.0000 </r>
       <r>    0.1340    1.0000 </r>
       <r>    0.5837    1.0000 </r>
       <r>    1.4012    1.0000 </r>
       <r>    1.4018    1.0000 </r>
       <r>    2.1676    1.0000 </r>
       <r>    2.1680    1.0000 </r>
       <r>    2.2669    1.0000 </r>
       <r>    2.3320    1.0000 </r>
       <r>    2.9969    1.0041 </r>
       <r>   11.0287    0.0000 </r>
       <r>   13.3277    0.0000 </r>
       <r>   13.3279    0.0000 </r>
       <r>   13.7036    0.0000 </r>
       <r>   14.3491    0.0000 </r>
       <r>   14.3505    0.0000 </r>
       <r>   15.4897    0.0000 </r>
       <r>   15.5637    0.0000 </r>
      </set>
      <set comment="kpoint 8">
       <r>  -13.1468    1.0000 </r>
       <r>  -12.7189    1.0000 </r>
       <r>  -12.6799    1.0000 </r>
       <r>  -12.6798    1.0000 </r>
       <r>   -1.0006    1.0000 </r>
       <r>   -0.9320    1.0000 </r>
       <r>   -0.9319    1.0000 </r>
       <r>   -0.4921    1.0000 </r>
       <r>    1.7514    1.0000 </r>
       <r>    1.7518    1.0000 </r>
       <r>    1.7844    1.0000 </r>
       <r>    2.3741    1.0000 </r>
       <r>    2.3746    1.0000 </r>
       <r>    2.4867    1.0000 </r>
       <r>    2.7288    1.0000 </r>
       <r>    2.8163    1.0001 </r>
       <r>   11.0226    0.0000 </r>
       <r>   12.2350    0.0000 </r>
       <r>   12.2354    0.0000 </r>
       <r>   12.3928    0.0000 </r>
       <r>   15.4033    0.0000 </r>
       <r>   15.5709    0.0000 </r>
       <r>   15.6287    0.0000 </r>
       <r>   15.6292    0.0000 </r>
      </set>
      <set comment="kpoint 9">
       <r>  -13.3532    1.0000 </r>
       <r>  -12.7722    1.0000 </r>
       <r>  -12.7720    1.0000 </r>
       <r>  -12.5045    1.0000 </r>
       <r>   -0.3212    1.0000 </r>
       <r>   -0.3212    1.0000 </r>
       <r>    0.0346    1.0000 </r>
       <r>    0.1714    1.0000 </r>
       <r>    0.6230    1.0000 </r>
       <r>    1.3503    1.0000 </r>
       <r>    1.3509    1.0000 </r>
       <r>    2.1322    1.0000 </r>
       <r>    2.2619    1.0000 </r>
       <r>    2.2623    1.0000 </r>
       <r>    2.3272    1.0000 </r>
       <r>    2.8441    1.0001 </r>
       <r>   10.9991    0.0000 </r>
       <r>   13.3486    0.0000 </r>
       <r>   13.3488    0.0000 </r>
       <r>   13.5010    0.0000 </r>
       <r>   14.3947    0.0000 </r>
       <r>   14.3961    0.0000 </r>
       <r>   15.5240    0.0000 </r>
       <r>   15.5453    0.0000 </r>
      </set>
      <set comment="kpoint 10">
       <r>  -13.1118    1.0000 </r>
       <r>  -12.7191    1.0000 </r>
       <r>  -12.7190    1.0000 </r>
       <r>  -12.6802    1.0000 </r>
       <r>   -0.9807    1.0000 </r>
       <r>   -0.9806    1.0000 </r>
       <r>   -0.9112    1.0000 </r>
       <r>   -0.4108    1.0000 </r>
       <r>    1.7946    1.0000 </r>
       <r>    1.8274    1.0000 </r>
       <r>    1.8278    1.0000 </r>
       <r>    2.2992    1.0000 </r>
       <r>    2.4089    1.0000 </r>
       <r>    2.4093    1.0000 </r>
       <r>    2.6515    1.0000 </r>
       <r>    2.7340    1.0000 </r>
       <r>   10.9393    0.0000 </r>
       <r>   12.2122    0.0000 </r>
       <r>   12.3680    0.0000 </r>
       <r>   12.3683    0.0000 </r>
       <r>   15.4654    0.0000 </r>
       <r>   15.4659    0.0000 </r>
       <r>   15.6876    0.0000 </r>
       <r>   15.7406    0.0000 </r>
      </set>
     </set>
    </set>
   </array>
  </eigenvalues>
  <separator name="orbital magnetization" >
   <v name="MAGDIPOLOUT">      0.00000000      0.00000000      0.00000000</v>
  </separator>
  <dos>
   <i name="efermi">      3.43461345 </i>
   <total>
    <array>
     <dimension dim="1">gridpoints</dimension>
     <dimension dim="2">spin</dimension>
     <field>energy</field>
     <field>total</field>
     <field>integrated</field>
     <set>
      <set comment="spin 1">
       <r>   -16.0608     0.0000     0.0000 </r>
       <r>   -15.9458     0.0000     0.0000 </r>
       <r>   -15.8308     0.0000     0.0000 </r>
       <r>   -15.7158    -0.0000    -0.0000 </r>
       <r>   -15.6008    -0.0000    -0.0000 </r>
       <r>   -15.4858    -0.0000    -0.0000 </r>
       <r>   -15.3708    -0.0000    -0.0000 </r>
       <r>   -15.2558    -0.0000    -0.0000 </r>
       <r>   -15.1408    -0.0000    -0.0000 </r>
       <r>   -15.0258    -0.0000    -0.0000 </r>
       <r>   -14.9108    -0.0000    -0.0000 </r>
       <r>   -14.7957    -0.0000    -0.0000 </r>
       <r>   -14.6807    -0.0000    -0.0000 </r>
       <r>   -14.5657    -0.0006    -0.0001 </r>
       <r>   -14.4507    -0.0054    -0.0007 </r>
       <r>   -14.3357    -0.0151    -0.0024 </r>
       <r>   -14.2207     0.0256     0.0005 </r>
       <r>   -14.1057     0.1762     0.0208 </r>
       <r>   -13.9907     0.2165     0.0457 </r>
       <r>   -13.8757     0.1768     0.0660 </r>
       <r>   -13.7607     0.8205     0.1604 </r>
       <r>   -13.6457     1.5817     0.3423 </r>
       <r>   -13.5307     1.5149     0.5165 </r>
       <r>   -13.4157     2.4223     0.7951 </r>
       <r>   -13.3006     3.5888     1.2078 </r>
       <r>   -13.1856     3.0492     1.5585 </r>
       <r>   -13.0706     2.1237     1.8027 </r>
       <r>   -12.9556     1.8955     2.0207 </r>
       <r>   -12.8406     5.7469     2.6817 </r>
       <r>   -12.7256    12.9543     4.1715 </r>
       <r>   -12.6106    14.4880     5.8377 </r>
       <r>   -12.4956    10.7438     7.0734 </r>
       <r>   -12.3806     6.5999     7.8324 </r>
       <r>   -12.2656     2.0363     8.0666 </r>
       <r>   -12.1506    -0.2420     8.0387 </r>
       <r>   -12.0356    -0.2761     8.0070 </r>
       <r>   -11.9206    -0.0558     8.0006 </r>
       <r>   -11.8056    -0.0047     8.0000 </r>
       <r>   -11.6905    -0.0002     8.0000 </r>
       <r>   -11.5755    -0.0000     8.0000 </r>
       <r>   -11.4605    -0.0000     8.0000 </r>
       <r>   -11.3455    -0.0000     8.0000 </r>
       <r>   -11.2305    -0.0000     8.0000 </r>
       <r>   -11.1155     0.0000     8.0000 </r>
       <r>   -11.0005     0.0000     8.0000 </r>
       <r>   -10.8855     0.0000     8.0000 </r>
       <r>   -10.7705     0.0000     8.0000 </r>
       <r>   -10.6555     0.0000     8.0000 </r>
       <r>   -10.5405     0.0000     8.0000 </r>
       <r>   -10.4255     0.0000     8.0000 </r>
       <r>   -10.3105     0.0000     8.0000 </r>
       <r>   -10.1955     0.0000     8.0000 </r>
       <r>   -10.0804     0.0000     8.0000 </r>
       <r>    -9.9654     0.0000     8.0000 </r>
       <r>    -9.8504     0.0000     8.0000 </r>
       <r>    -9.7354     0.0000     8.0000 </r>
       <r>    -9.6204     0.0000     8.0000 </r>
       <r>    -9.5054     0.0000     8.0000 </r>
       <r>    -9.3904     0.0000     8.0000 </r>
       <r>    -9.2754     0.0000     8.0000 </r>
       <r>    -9.1604     0.0000     8.0000 </r>
       <r>    -9.0454     0.0000     8.0000 </r>
       <r>    -8.9304     0.0000     8.0000 </r>
       <r>    -8.8154     0.0000     8.0000 </r>
       <r>    -8.7004     0.0000     8.0000 </r>
       <r>    -8.5854     0.0000     8.0000 </r>
       <r>    -8.4703     0.0000     8.0000 </r>
       <r>    -8.3553     0.0000     8.0000 </r>
       <r>    -8.2403     0.0000     8.0000 </r>
       <r>    -8.1253     0.0000     8.0000 </r>
       <r>    -8.0103     0.0000     8.0000 </r>
       <r>    -7.8953     0.0000     8.0000 </r>
       <r>    -7.7803     0.0000     8.0000 </r>
       <r>    -7.6653     0.0000     8.0000 </r>
       <r>    -7.5503     0.0000     8.0000 </r>
       <r>    -7.4353     0.0000     8.0000 </r>
       <r>    -7.3203     0.0000     8.0000 </r>
       <r>    -7.2053     0.0000     8.0000 </r>
       <r>    -7.0903     0.0000     8.0000 </r>
       <r>    -6.9753     0.0000     8.0000 </r>
       <r>    -6.8602     0.0000     8.0000 </r>
       <r>    -6.7452     0.0000     8.0000 </r>
       <r>    -6.6302     0.0000     8.0000 </r>
       <r>    -6.5152     0.0000     8.0000 </r>
       <r>    -6.4002     0.0000     8.0000 </r>
       <r>    -6.2852     0.0000     8.0000 </r>
       <r>    -6.1702     0.0000     8.0000 </r>
       <r>    -6.0552     0.0000     8.0000 </r>
       <r>    -5.9402     0.0000     8.0000 </r>
       <r>    -5.8252     0.0000     8.0000 </r>
       <r>    -5.7102     0.0000     8.0000 </r>
       <r>    -5.5952     0.0000     8.0000 </r>
       <r>    -5.4802     0.0000     8.0000 </r>
       <r>    -5.3652     0.0000     8.0000 </r>
       <r>    -5.2501     0.0000     8.0000 </r>
       <r>    -5.1351     0.0000     8.0000 </r>
       <r>    -5.0201     0.0000     8.0000 </r>
       <r>    -4.9051     0.0000     8.0000 </r>
       <r>    -4.7901     0.0000     8.0000 </r>
       <r>    -4.6751     0.0000     8.0000 </r>
       <r>    -4.5601     0.0000     8.0000 </r>
       <r>    -4.4451     0.0000     8.0000 </r>
       <r>    -4.3301     0.0000     8.0000 </r>
       <r>    -4.2151     0.0000     8.0000 </r>
       <r>    -4.1001     0.0000     8.0000 </r>
       <r>    -3.9851     0.0000     8.0000 </r>
       <r>    -3.8701     0.0000     8.0000 </r>
       <r>    -3.7550     0.0000     8.0000 </r>
       <r>    -3.6400     0.0000     8.0000 </r>
       <r>    -3.5250     0.0000     8.0000 </r>
       <r>    -3.4100     0.0000     8.0000 </r>
       <r>    -3.2950     0.0000     8.0000 </r>
       <r>    -3.1800     0.0000     8.0000 </r>
       <r>    -3.0650     0.0000     8.0000 </r>
       <r>    -2.9500     0.0000     8.0000 </r>
       <r>    -2.8350     0.0000     8.0000 </r>
       <r>    -2.7200     0.0000     8.0000 </r>
       <r>    -2.6050    -0.0000     8.0000 </r>
       <r>    -2.4900    -0.0000     8.0000 </r>
       <r>    -2.3750    -0.0000     8.0000 </r>
       <r>    -2.2600    -0.0000     8.0000 </r>
       <r>    -2.1449    -0.0000     8.0000 </r>
       <r>    -2.0299    -0.0000     8.0000 </r>
       <r>    -1.9149    -0.0000     8.0000 </r>
       <r>    -1.7999    -0.0000     8.0000 </r>
       <r>    -1.6849    -0.0000     8.0000 </r>
       <r>    -1.5699    -0.0014     7.9998 </r>
       <r>    -1.4549    -0.0217     7.9973 </r>
       <r>    -1.3399    -0.1537     7.9797 </r>
       <r>    -1.2249    -0.3378     7.9408 </r>
       <r>    -1.1099     0.9169     8.0463 </r>
       <r>    -0.9949     5.1019     8.6330 </r>
       <r>    -0.8799     7.5479     9.5011 </r>
       <r>    -0.7649     4.0812     9.9705 </r>
       <r>    -0.6499     0.1169     9.9839 </r>
       <r>    -0.5348     0.5628    10.0486 </r>
       <r>    -0.4198     6.2705    10.7698 </r>
       <r>    -0.3048    12.5056    12.2080 </r>
       <r>    -0.1898    10.4483    13.4097 </r>
       <r>    -0.0748     4.8552    13.9680 </r>
       <r>     0.0402     4.2115    14.4524 </r>
       <r>     0.1552     5.0685    15.0353 </r>
       <r>     0.2702     3.2676    15.4111 </r>
       <r>     0.3852     0.7065    15.4924 </r>
       <r>     0.5002     1.0004    15.6074 </r>
       <r>     0.6152     3.0944    15.9633 </r>
       <r>     0.7302     2.7638    16.2812 </r>
       <r>     0.8452     1.4404    16.4468 </r>
       <r>     0.9602     2.6135    16.7474 </r>
       <r>     1.0753     2.9451    17.0861 </r>
       <r>     1.1903     1.4284    17.2504 </r>
       <r>     1.3053     3.3819    17.6393 </r>
       <r>     1.4203     7.2403    18.4720 </r>
       <r>     1.5353     7.5118    19.3359 </r>
       <r>     1.6503     7.0723    20.1493 </r>
       <r>     1.7653     8.5309    21.1304 </r>
       <r>     1.8803     7.8208    22.0298 </r>
       <r>     1.9953     3.9818    22.4878 </r>
       <r>     2.1103     5.6503    23.1376 </r>
       <r>     2.2253    14.7433    24.8332 </r>
       <r>     2.3403    18.6462    26.9776 </r>
       <r>     2.4553    12.0391    28.3622 </r>
       <r>     2.5703     4.4668    28.8759 </r>
       <r>     2.6854     3.4757    29.2756 </r>
       <r>     2.8004     7.0049    30.0813 </r>
       <r>     2.9154     8.5178    31.0609 </r>
       <r>     3.0304     5.4036    31.6823 </r>
       <r>     3.1454     1.6568    31.8729 </r>
       <r>     3.2604     0.5184    31.9325 </r>
       <r>     3.3754     0.4573    31.9851 </r>
       <r>     3.4904     0.1758    32.0053 </r>
       <r>     3.6054    -0.0162    32.0034 </r>
       <r>     3.7204    -0.0241    32.0007 </r>
       <r>     3.8354    -0.0053    32.0001 </r>
       <r>     3.9504    -0.0005    32.0000 </r>
       <r>     4.0654    -0.0000    32.0000 </r>
       <r>     4.1804    -0.0000    32.0000 </r>
       <r>     4.2955    -0.0000    32.0000 </r>
       <r>     4.4105    -0.0000    32.0000 </r>
       <r>     4.5255    -0.0000    32.0000 </r>
       <r>     4.6405    -0.0000    32.0000 </r>
       <r>     4.7555     0.0000    32.0000 </r>
       <r>     4.8705     0.0000    32.0000 </r>
       <r>     4.9855     0.0000    32.0000 </r>
       <r>     5.1005     0.0000    32.0000 </r>
       <r>     5.2155     0.0000    32.0000 </r>
       <r>     5.3305     0.0000    32.0000 </r>
       <r>     5.4455     0.0000    32.0000 </r>
       <r>     5.5605     0.0000    32.0000 </r>
       <r>     5.6755     0.0000    32.0000 </r>
       <r>     5.7906     0.0000    32.0000 </r>
       <r>     5.9056     0.0000    32.0000 </r>
       <r>     6.0206     0.0000    32.0000 </r>
       <r>     6.1356     0.0000    32.0000 </r>
       <r>     6.2506     0.0000    32.0000 </r>
       <r>     6.3656    -0.0000    32.0000 </r>
       <r>     6.4806    -0.0000    32.0000 </r>
       <r>     6.5956    -0.0000    32.0000 </r>
       <r>     6.7106    -0.0000    32.0000 </r>
       <r>     6.8256    -0.0000    32.0000 </r>
       <r>     6.9406    -0.0000    32.0000 </r>
       <r>     7.0556    -0.0000    32.0000 </r>
       <r>     7.1706    -0.0000    32.0000 </r>
       <r>     7.2856    -0.0000    32.0000 </r>
       <r>     7.4007    -0.0000    32.0000 </r>
       <r>     7.5157    -0.0003    32.0000 </r>
       <r>     7.6307    -0.0034    31.9996 </r>
       <r>     7.7457    -0.0134    31.9980 </r>
       <r>     7.8607     0.0051    31.9986 </r>
       <r>     7.9757     0.1459    32.0154 </r>
       <r>     8.0907     0.2962    32.0494 </r>
       <r>     8.2057     0.2039    32.0729 </r>
       <r>     8.3207     0.0317    32.0765 </r>
       <r>     8.4357    -0.0150    32.0748 </r>
       <r>     8.5507    -0.0057    32.0742 </r>
       <r>     8.6657    -0.0007    32.0741 </r>
       <r>     8.7807    -0.0000    32.0741 </r>
       <r>     8.8957    -0.0000    32.0741 </r>
       <r>     9.0108    -0.0000    32.0741 </r>
       <r>     9.1258    -0.0000    32.0741 </r>
       <r>     9.2408    -0.0000    32.0741 </r>
       <r>     9.3558    -0.0003    32.0740 </r>
       <r>     9.4708    -0.0058    32.0734 </r>
       <r>     9.5858    -0.0421    32.0685 </r>
       <r>     9.7008    -0.0872    32.0585 </r>
       <r>     9.8158     0.2865    32.0914 </r>
       <r>     9.9308     1.3664    32.2486 </r>
       <r>    10.0458     1.7273    32.4472 </r>
       <r>    10.1608     0.7251    32.5306 </r>
       <r>    10.2758    -0.0158    32.5288 </r>
       <r>    10.3908    -0.0740    32.5203 </r>
       <r>    10.5058    -0.0355    32.5162 </r>
       <r>    10.6209    -0.1303    32.5012 </r>
       <r>    10.7359    -0.2454    32.4730 </r>
       <r>    10.8509     0.8640    32.5724 </r>
       <r>    10.9659     4.1608    33.0509 </r>
       <r>    11.0809     5.6741    33.7035 </r>
       <r>    11.1959     2.7798    34.0232 </r>
       <r>    11.3109     0.1258    34.0376 </r>
       <r>    11.4259    -0.2530    34.0085 </r>
       <r>    11.5409    -0.0673    34.0008 </r>
       <r>    11.6559    -0.0083    33.9998 </r>
       <r>    11.7709    -0.0223    33.9973 </r>
       <r>    11.8859    -0.1326    33.9820 </r>
       <r>    12.0009    -0.2188    33.9569 </r>
       <r>    12.1159     0.8250    34.0517 </r>
       <r>    12.2310     3.8428    34.4937 </r>
       <r>    12.3460     6.3322    35.2219 </r>
       <r>    12.4610     5.4356    35.8471 </r>
       <r>    12.5760     2.9819    36.1900 </r>
       <r>    12.6910     1.6430    36.3790 </r>
       <r>    12.8060     0.6630    36.4552 </r>
       <r>    12.9210    -0.1353    36.4397 </r>
       <r>    13.0360    -0.5474    36.3767 </r>
       <r>    13.1510     0.3628    36.4184 </r>
       <r>    13.2660     5.2553    37.0228 </r>
       <r>    13.3810     9.7880    38.1485 </r>
       <r>    13.4960     7.2177    38.9786 </r>
       <r>    13.6110     3.6468    39.3980 </r>
       <r>    13.7260     3.6516    39.8180 </r>
       <r>    13.8411     4.1828    40.2990 </r>
       <r>    13.9561     2.7482    40.6151 </r>
       <r>    14.0711     0.3320    40.6533 </r>
       <r>    14.1861    -0.0487    40.6477 </r>
       <r>    14.3011     3.3261    41.0302 </r>
       <r>    14.4161     6.9821    41.8332 </r>
       <r>    14.5311     4.8675    42.3930 </r>
       <r>    14.6461     1.0491    42.5136 </r>
       <r>    14.7611     0.8438    42.6107 </r>
       <r>    14.8761     1.6426    42.7996 </r>
       <r>    14.9911     1.3125    42.9505 </r>
       <r>    15.1061     0.8035    43.0429 </r>
       <r>    15.2211     0.2693    43.0739 </r>
       <r>    15.3362     1.4381    43.2393 </r>
       <r>    15.4512     7.4099    44.0915 </r>
       <r>    15.5662    13.2115    45.6109 </r>
       <r>    15.6812    11.4276    46.9252 </r>
       <r>    15.7962     6.1120    47.6281 </r>
       <r>    15.9112     2.4516    47.9100 </r>
       <r>    16.0262     0.4379    47.9604 </r>
       <r>    16.1412    -0.1935    47.9382 </r>
       <r>    16.2562    -0.0964    47.9271 </r>
       <r>    16.3712     0.1349    47.9426 </r>
       <r>    16.4862     0.2962    47.9767 </r>
       <r>    16.6012     0.1965    47.9993 </r>
       <r>    16.7162     0.0275    48.0024 </r>
       <r>    16.8312    -0.0150    48.0007 </r>
       <r>    16.9463    -0.0054    48.0001 </r>
       <r>    17.0613    -0.0006    48.0000 </r>
       <r>    17.1763    -0.0000    48.0000 </r>
       <r>    17.2913    -0.0000    48.0000 </r>
       <r>    17.4063    -0.0000    48.0000 </r>
       <r>    17.5213    -0.0000    48.0000 </r>
       <r>    17.6363    -0.0000    48.0000 </r>
       <r>    17.7513    -0.0000    48.0000 </r>
       <r>    17.8663     0.0000    48.0000 </r>
       <r>    17.9813     0.0000    48.0000 </r>
       <r>    18.0963     0.0000    48.0000 </r>
       <r>    18.2113     0.0000    48.0000 </r>
       <r>    18.3263     0.0000    48.0000 </r>
       <r>    18.4413     0.0000    48.0000 </r>
      </set>
     </set>
    </array>
   </total>
  </dos>
 </calculation>
 <structure name="finalpos" >
  <crystal>
   <varray name="basis" >
    <v>       4.20047253       0.00000000       0.00000000 </v>
    <v>       0.00000000       4.20047253       0.08400945 </v>
    <v>       0.00000000       0.00000000       4.20047253 </v>
   </varray>
   <i name="volume">     74.11300886 </i>
   <varray name="rec_basis" >
    <v>       0.23806845       0.00000000       0.00000000 </v>
    <v>       0.00000000       0.23806845       0.00000000 </v>
    <v>       0.00000000      -0.00476137       0.23806845 </v>
   </varray>
  </crystal>
  <varray name="positions" >
   <v>       0.00000000       0.00000000       0.00000000 </v>
   <v>       0.00000000       0.50000000       0.50000000 </v>
   <v>       0.50000000       0.00000000       0.50000000 </v>
   <v>       0.50000000       0.50000000       0.00000000 </v>
   <v>       0.50000000       0.50000000       0.50000000 </v>
   <v>       0.50000000       0.00000000       0.00000000 </v>
   <v>       0.00000000       0.50000000       0.00000000 </v>
   <v>       0.00000000       0.00000000       0.50000000 </v>
  </varray>
 </structure>
</modeling>
