<?xml version="1.0" encoding="ISO-8859-1"?>
<modeling>
 <generator>
  <i name="program" type="string">vasp </i>
  <i name="version" type="string">5.4.1  </i>
  <i name="subversion" type="string">24Jun15 (build Oct  9 2015 14:58:31) complex                          parallel </i>
  <i name="platform" type="string">IFC91_ompi </i>
  <i name="date" type="string">2017 09 13 </i>
  <i name="time" type="string">11:30:36 </i>
 </generator>
 <incar>
  <i type="string" name="PREC">accurate</i>
  <i type="string" name="ALGO"> Fast</i>
  <i type="int" name="IBRION">     2</i>
  <i name="EDIFF">      0.00000001</i>
  <i type="int" name="NSW">    30</i>
  <i type="int" name="ISIF">     2</i>
  <i type="string" name="LREAL"> A</i>
  <i type="logical" name="LWAVE"> F  </i>
  <i type="logical" name="LCHARG"> F  </i>
  <v type="int" name="KPOINT_BSE">    -1     0     0     0</v>
  <i type="string" name="GGA"> PE</i>
 </incar>
 <kpoints>
  <generation param="Monkhorst-Pack">
   <v type="int" name="divisions">       3        3        3 </v>
   <v name="usershift">      0.00000000       0.00000000       0.00000000 </v>
   <v name="genvec1">      0.33333333       0.00000000       0.00000000 </v>
   <v name="genvec2">      0.00000000       0.33333333       0.00000000 </v>
   <v name="genvec3">      0.00000000       0.00000000       0.33333333 </v>
   <v name="shift">      0.00000000       0.00000000       0.00000000 </v>
  </generation>
  <varray name="kpointlist" >
   <v>       0.00000000       0.00000000       0.00000000 </v>
   <v>       0.33333333       0.00000000       0.00000000 </v>
   <v>       0.33333333       0.33333333       0.00000000 </v>
   <v>       0.33333333       0.33333333       0.33333333 </v>
  </varray>
  <varray name="weights" >
   <v>       0.03703704 </v>
   <v>       0.22222222 </v>
   <v>       0.44444444 </v>
   <v>       0.29629630 </v>
  </varray>
 </kpoints>
 <parameters>
  <separator name="general" >
   <i type="string" name="SYSTEM">unknown system</i>
   <i type="logical" name="LCOMPAT"> F  </i>
  </separator>
  <separator name="electronic" >
   <i type="string" name="PREC">accura</i>
   <i name="ENMAX">    400.00000000</i>
   <i name="ENAUG">    605.39200000</i>
   <i name="EDIFF">      0.00000001</i>
   <i type="int" name="IALGO">    68</i>
   <i type="int" name="IWAVPR">    11</i>
   <i type="int" name="NBANDS">    24</i>
   <i name="NELECT">     32.00000000</i>
   <i type="int" name="TURBO">     0</i>
   <i type="int" name="IRESTART">     0</i>
   <i type="int" name="NREBOOT">     0</i>
   <i type="int" name="NMIN">     0</i>
   <i name="EREF">      0.00000000</i>
   <separator name="electronic smearing" >
    <i type="int" name="ISMEAR">     1</i>
    <i name="SIGMA">      0.20000000</i>
    <i name="KSPACING">      0.50000000</i>
    <i type="logical" name="KGAMMA"> T  </i>
   </separator>
   <separator name="electronic projectors" >
    <i type="logical" name="LREAL"> T  </i>
    <v name="ROPT">     -0.00025000     -0.00025000</v>
    <i type="int" name="LMAXPAW">  -100</i>
    <i type="int" name="LMAXMIX">     2</i>
    <i type="logical" name="NLSPLINE"> F  </i>
   </separator>
   <separator name="electronic startup" >
    <i type="int" name="ISTART">     0</i>
    <i type="int" name="ICHARG">     2</i>
    <i type="int" name="INIWAV">     1</i>
   </separator>
   <separator name="electronic spin" >
    <i type="int" name="ISPIN">     1</i>
    <i type="logical" name="LNONCOLLINEAR"> F  </i>
    <v name="MAGMOM">      1.00000000      1.00000000      1.00000000      1.00000000      1.00000000      1.00000000      1.00000000      1.00000000</v>
    <i name="NUPDOWN">     -1.00000000</i>
    <i type="logical" name="LSORBIT"> F  </i>
    <v name="SAXIS">      0.00000000      0.00000000      1.00000000</v>
    <i type="logical" name="LSPIRAL"> F  </i>
    <v name="QSPIRAL">      0.00000000      0.00000000      0.00000000</v>
    <i type="logical" name="LZEROZ"> F  </i>
   </separator>
   <separator name="electronic exchange-correlation" >
    <i type="logical" name="LASPH"> F  </i>
    <i type="logical" name="LMETAGGA"> F  </i>
   </separator>
   <separator name="electronic convergence" >
    <i type="int" name="NELM">    60</i>
    <i type="int" name="NELMDL">     0</i>
    <i type="int" name="NELMIN">     2</i>
    <i name="ENINI">    400.00000000</i>
    <separator name="electronic convergence detail" >
     <i type="logical" name="LDIAG"> T  </i>
     <i type="logical" name="LSUBROT"> F  </i>
     <i name="WEIMIN">      0.00100000</i>
     <i name="EBREAK">      0.00000000</i>
     <i name="DEPER">      0.30000000</i>
     <i type="int" name="NRMM">     4</i>
     <i name="TIME">      0.40000000</i>
    </separator>
   </separator>
   <separator name="electronic mixer" >
    <i name="AMIX">      0.40000000</i>
    <i name="BMIX">      1.00000000</i>
    <i name="AMIN">      0.10000000</i>
    <i name="AMIX_MAG">      1.60000000</i>
    <i name="BMIX_MAG">      1.00000000</i>
    <separator name="electronic mixer details" >
     <i type="int" name="IMIX">     4</i>
     <i type="logical" name="MIXFIRST"> F  </i>
     <i type="int" name="MAXMIX">   -45</i>
     <i name="WC">    100.00000000</i>
     <i type="int" name="INIMIX">     1</i>
     <i type="int" name="MIXPRE">     1</i>
     <i type="int" name="MREMOVE">     5</i>
    </separator>
   </separator>
   <separator name="electronic dipolcorrection" >
    <i type="logical" name="LDIPOL"> F  </i>
    <i type="logical" name="LMONO"> F  </i>
    <i type="int" name="IDIPOL">     0</i>
    <i name="EPSILON">      1.00000000</i>
    <v name="DIPOL">   -100.00000000   -100.00000000   -100.00000000</v>
    <i name="EFIELD">      0.00000000</i>
   </separator>
  </separator>
  <separator name="grids" >
   <i type="int" name="NGX">    28</i>
   <i type="int" name="NGY">    28</i>
   <i type="int" name="NGZ">    28</i>
   <i type="int" name="NGXF">    56</i>
   <i type="int" name="NGYF">    56</i>
   <i type="int" name="NGZF">    56</i>
   <i type="logical" name="ADDGRID"> F  </i>
  </separator>
  <separator name="ionic" >
   <i type="int" name="NSW">    30</i>
   <i type="int" name="IBRION">     2</i>
   <i type="int" name="ISIF">     2</i>
   <i name="PSTRESS">      0.00000000</i>
   <i name="EDIFFG">      0.00000010</i>
   <i type="int" name="NFREE">     1</i>
   <i name="POTIM">      0.50000000</i>
   <i name="SMASS">     -3.00000000</i>
   <i name="SCALEE">      1.00000000</i>
  </separator>
  <separator name="ionic md" >
   <i name="TEBEG">      0.00010000</i>
   <i name="TEEND">      0.00010000</i>
   <i type="int" name="NBLOCK">     1</i>
   <i type="int" name="KBLOCK">    30</i>
   <i type="int" name="NPACO">   256</i>
   <i name="APACO">     16.00000000</i>
  </separator>
  <separator name="symmetry" >
   <i type="int" name="ISYM">     2</i>
   <i name="SYMPREC">      0.00001000</i>
  </separator>
  <separator name="dos" >
   <i type="logical" name="LORBIT"> T  </i>
   <v name="RWIGS">     -1.00000000     -1.00000000</v>
   <i type="int" name="NEDOS">   301</i>
   <i name="EMIN">     10.00000000</i>
   <i name="EMAX">    -10.00000000</i>
   <i name="EFERMI">      0.00000000</i>
  </separator>
  <separator name="writing" >
   <i type="int" name="NWRITE">     2</i>
   <i type="logical" name="LWAVE"> F  </i>
   <i type="logical" name="LCHARG"> F  </i>
   <i type="logical" name="LPARD"> F  </i>
   <i type="logical" name="LVTOT"> F  </i>
   <i type="logical" name="LVHAR"> F  </i>
   <i type="logical" name="LELF"> F  </i>
   <i type="logical" name="LOPTICS"> F  </i>
   <v name="STM">      0.00000000      0.00000000      0.00000000      0.00000000      0.00000000      0.00000000      0.00000000</v>
  </separator>
  <separator name="performance" >
   <i type="int" name="NPAR">     4</i>
   <i type="int" name="NSIM">     4</i>
   <i type="int" name="NBLK">    -1</i>
   <i type="logical" name="LPLANE"> T  </i>
   <i type="logical" name="LSCALAPACK"> T  </i>
   <i type="logical" name="LSCAAWARE"> F  </i>
   <i type="logical" name="LSCALU"> F  </i>
   <i type="logical" name="LASYNC"> F  </i>
   <i type="logical" name="LORBITALREAL"> F  </i>
  </separator>
  <separator name="miscellaneous" >
   <i type="int" name="IDIOT">     3</i>
   <i type="logical" name="LMUSIC"> F  </i>
   <v name="POMASS">     24.30500000     16.00000000</v>
   <v name="DARWINR">      0.00000000      0.00000000</v>
   <v name="DARWINV">      1.00000000      1.00000000</v>
   <i type="logical" name="LCORR"> T  </i>
  </separator>
  <i type="logical" name="GGA_COMPAT"> T  </i>
  <i type="logical" name="LBERRY"> F  </i>
  <i type="int" name="ICORELEVEL">     0</i>
  <i type="logical" name="LDAU"> F  </i>
  <i type="int" name="I_CONSTRAINED_M">     0</i>
  <separator name="electronic exchange-correlation" >
   <i type="string" name="GGA">PE</i>
   <i type="int" name="VOSKOWN">     0</i>
   <i type="logical" name="LHFCALC"> F  </i>
   <i type="string" name="PRECFOCK"></i>
   <i type="logical" name="LSYMGRAD"> F  </i>
   <i type="logical" name="LHFONE"> F  </i>
   <i type="logical" name="LRHFCALC"> F  </i>
   <i type="logical" name="LTHOMAS"> F  </i>
   <i type="logical" name="LMODELHF"> F  </i>
   <i name="ENCUT4O">     -1.00000000</i>
   <i type="int" name="EXXOEP">     0</i>
   <i type="int" name="FOURORBIT">     0</i>
   <i name="AEXX">      0.00000000</i>
   <i name="HFALPHA">      0.00000000</i>
   <i name="MCALPHA">      0.00000000</i>
   <i name="ALDAX">      1.00000000</i>
   <i name="AGGAX">      1.00000000</i>
   <i name="ALDAC">      1.00000000</i>
   <i name="AGGAC">      1.00000000</i>
   <i type="int" name="NKREDX">     1</i>
   <i type="int" name="NKREDY">     1</i>
   <i type="int" name="NKREDZ">     1</i>
   <i type="logical" name="SHIFTRED"> F  </i>
   <i type="logical" name="ODDONLY"> F  </i>
   <i type="logical" name="EVENONLY"> F  </i>
   <i type="int" name="LMAXFOCK">     0</i>
   <i type="int" name="NMAXFOCKAE">     0</i>
   <i type="logical" name="LFOCKAEDFT"> F  </i>
   <i name="HFSCREEN">      0.00000000</i>
   <i name="HFSCREENC">      0.00000000</i>
   <i type="int" name="NBANDSGWLOW">     0</i>
  </separator>
  <separator name="vdW DFT" >
   <i type="logical" name="LUSE_VDW"> F  </i>
   <i name="Zab_VDW">     -0.84910000</i>
   <i name="PARAM1">      0.12340000</i>
   <i name="PARAM2">      1.00000000</i>
   <i name="PARAM3">      0.00000000</i>
  </separator>
  <separator name="model GW" >
   <i type="int" name="MODEL_GW">     0</i>
   <i name="MODEL_EPS0">      5.66964518</i>
   <i name="MODEL_ALPHA">      1.00000000</i>
  </separator>
  <separator name="linear response parameters" >
   <i type="logical" name="LEPSILON"> F  </i>
   <i type="logical" name="LRPA"> F  </i>
   <i type="logical" name="LNABLA"> F  </i>
   <i type="logical" name="LVEL"> F  </i>
   <i type="int" name="KINTER">     0</i>
   <i name="CSHIFT">      0.10000000</i>
   <i name="OMEGAMAX">     -1.00000000</i>
   <i name="DEG_THRESHOLD">      0.00200000</i>
  </separator>
  <separator name="orbital magnetization" >
   <i type="logical" name="NUCIND"> F  </i>
   <v name="MAGPOS">      0.00000000      0.00000000      0.00000000</v>
   <i type="logical" name="LNICSALL"> T  </i>
   <i type="logical" name="ORBITALMAG"> F  </i>
   <i type="logical" name="LMAGBLOCH"> F  </i>
   <i type="logical" name="LCHIMAG"> F  </i>
   <i type="logical" name="LGAUGE"> T  </i>
   <i type="int" name="MAGATOM">     0</i>
   <v name="MAGDIPOL">      0.00000000      0.00000000      0.00000000</v>
   <v name="AVECCONST">      0.00000000      0.00000000      0.00000000</v>
  </separator>
  <separator name="response functions" >
   <i type="logical" name="LADDER"> F  </i>
   <i type="logical" name="LFXC"> F  </i>
   <i type="logical" name="LHARTREE"> T  </i>
   <i type="int" name="IBSE">     0</i>
   <v type="int" name="KPOINT">    -1     0     0     0</v>
   <i type="logical" name="LTCTE"> F  </i>
   <i type="logical" name="LTETE"> F  </i>
   <i type="logical" name="LTRIPLET"> F  </i>
   <i type="logical" name="LFXCEPS"> F  </i>
   <i type="logical" name="LFXHEG"> F  </i>
   <i type="int" name="NATURALO">     0</i>
   <i type="logical" name="L2ORDER"> F  </i>
   <i type="logical" name="LUSEW"> F  </i>
   <i name="ENCUTGW">     -2.00000000</i>
   <i name="ENCUTGWSOFT">     -2.00000000</i>
   <i name="ENCUTLF">     -1.00000000</i>
   <i type="int" name="LMAXMP2">    -1</i>
   <i name="SCISSOR">      0.00000000</i>
   <i type="int" name="NOMEGA">     0</i>
   <i type="int" name="NOMEGAR">     0</i>
   <i type="int" name="NBANDSGW">    -1</i>
   <i type="int" name="NBANDSO">    -1</i>
   <i type="int" name="NBANDSV">    -1</i>
   <i type="int" name="NELM">     1</i>
   <i type="int" name="NELMHF">     1</i>
   <i type="int" name="DIM">     3</i>
   <i type="int" name="ANTIRES">     0</i>
   <i name="OMEGAMAX">    -30.00000000</i>
   <i name="OMEGAMIN">    -30.00000000</i>
   <i name="OMEGATL">   -200.00000000</i>
   <i type="int" name="OMEGAGRID">     0</i>
   <i name="CSHIFT">     -0.10000000</i>
   <i type="logical" name="SELFENERGY"> F  </i>
   <i type="logical" name="LSPECTRAL"> F  </i>
   <i type="logical" name="LSPECTRALGW"> F  </i>
   <i type="logical" name="LSINGLES"> F  </i>
   <i type="logical" name="LFERMIGW"> F  </i>
   <i type="logical" name="ODDONLYGW"> F  </i>
   <i type="logical" name="EVENONLYGW"> F  </i>
   <i type="int" name="NKREDLFX">     1</i>
   <i type="int" name="NKREDLFY">     1</i>
   <i type="int" name="NKREDLFZ">     1</i>
   <i type="int" name="MAXMEM">  1800</i>
   <i type="int" name="TELESCOPE">     0</i>
   <i type="int" name="TAUPAR">     1</i>
   <i type="int" name="OMEGAPAR">    -1</i>
   <i name="LAMBDA">      1.00000000</i>
  </separator>
  <separator name="External order field" >
   <i name="OFIELD_KAPPA">      0.00000000</i>
   <v name="OFIELD_K">      0.00000000      0.00000000      0.00000000</v>
   <i name="OFIELD_Q6_NEAR">      0.00000000</i>
   <i name="OFIELD_Q6_FAR">      0.00000000</i>
   <i name="OFIELD_A">      0.00000000</i>
  </separator>
 </parameters>
 <atominfo>
  <atoms>       8 </atoms>
  <types>       2 </types>
  <array name="atoms" >
   <dimension dim="1">ion</dimension>
   <field type="string">element</field>
   <field type="int">atomtype</field>
   <set>
    <rc><c>Mg</c><c>   1</c></rc>
    <rc><c>Mg</c><c>   1</c></rc>
    <rc><c>Mg</c><c>   1</c></rc>
    <rc><c>Mg</c><c>   1</c></rc>
    <rc><c>O </c><c>   2</c></rc>
    <rc><c>O </c><c>   2</c></rc>
    <rc><c>O </c><c>   2</c></rc>
    <rc><c>O </c><c>   2</c></rc>
   </set>
  </array>
  <array name="atomtypes" >
   <dimension dim="1">type</dimension>
   <field type="int">atomspertype</field>
   <field type="string">element</field>
   <field>mass</field>
   <field>valence</field>
   <field type="string">pseudopotential</field>
   <set>
    <rc><c>   4</c><c>Mg</c><c>     24.30500000</c><c>      2.00000000</c><c>  PAW_PBE Mg 13Apr2007                  </c></rc>
    <rc><c>   4</c><c>O </c><c>     16.00000000</c><c>      6.00000000</c><c>  PAW_PBE O 08Apr2002                   </c></rc>
   </set>
  </array>
 </atominfo>
 <structure name="initialpos" >
  <crystal>
   <varray name="basis" >
    <v>       4.22829103       0.00000000       0.00000000 </v>
    <v>       0.00000000       4.22829103       0.00000000 </v>
    <v>       0.00000000       0.00000000       4.22829103 </v>
   </varray>
   <i name="volume">     75.59526903 </i>
   <varray name="rec_basis" >
    <v>       0.23650217       0.00000000       0.00000000 </v>
    <v>       0.00000000       0.23650217       0.00000000 </v>
    <v>       0.00000000       0.00000000       0.23650217 </v>
   </varray>
  </crystal>
  <varray name="positions" >
   <v>       0.00000000       0.00000000       0.00000000 </v>
   <v>       0.00000000       0.50000000       0.50000000 </v>
   <v>       0.50000000       0.00000000       0.50000000 </v>
   <v>       0.50000000       0.50000000       0.00000000 </v>
   <v>       0.50000000       0.50000000       0.50000000 </v>
   <v>       0.50000000       0.00000000       0.00000000 </v>
   <v>       0.00000000       0.50000000       0.00000000 </v>
   <v>       0.00000000       0.00000000       0.50000000 </v>
  </varray>
 </structure>
 <calculation>
  <scstep>
   <time name="dav">    0.35    0.35</time>
   <time name="total">    0.42    0.42</time>
   <energy>
    <i name="alphaZ">     77.31604428 </i>
    <i name="ewald">  -1427.26586825 </i>
    <i name="hartreedc">   -486.85210081 </i>
    <i name="XCdc">    -81.86780019 </i>
    <i name="pawpsdc">   1647.42468863 </i>
    <i name="pawaedc">  -1447.16842517 </i>
    <i name="eentropy">      0.00343584 </i>
    <i name="bandstr">      3.96458437 </i>
    <i name="atom">   1821.19987801 </i>
    <i name="e_fr_energy">    106.75443672 </i>
    <i name="e_wo_entrp">    106.75100088 </i>
    <i name="e_0_energy">    106.75329144 </i>
   </energy>
  </scstep>
  <scstep>
   <time name="dav">    0.45    0.45</time>
   <time name="total">    0.45    0.45</time>
   <energy>
    <i name="e_fr_energy">    -47.26428226 </i>
    <i name="e_wo_entrp">    -47.26483488 </i>
    <i name="e_0_energy">    -47.26446646 </i>
   </energy>
  </scstep>
  <scstep>
   <time name="dav">    0.39    0.39</time>
   <time name="total">    0.40    0.40</time>
   <energy>
    <i name="e_fr_energy">    -53.79658513 </i>
    <i name="e_wo_entrp">    -53.80607388 </i>
    <i name="e_0_energy">    -53.79974805 </i>
   </energy>
  </scstep>
  <scstep>
   <time name="dav">    0.34    0.34</time>
   <time name="total">    0.34    0.34</time>
   <energy>
    <i name="e_fr_energy">    -53.82561189 </i>
    <i name="e_wo_entrp">    -53.83534981 </i>
    <i name="e_0_energy">    -53.82885786 </i>
   </energy>
  </scstep>
  <scstep>
   <time name="dav">    0.42    0.42</time>
   <time name="total">    0.52    0.54</time>
   <energy>
    <i name="e_fr_energy">    -53.82579013 </i>
    <i name="e_wo_entrp">    -53.83553395 </i>
    <i name="e_0_energy">    -53.82903807 </i>
   </energy>
  </scstep>
  <scstep>
   <time name="diag">    0.04    0.04</time>
   <time name="diis">    0.21    0.21</time>
   <time name="orth">    0.00    0.00</time>
   <time name="total">    0.42    0.42</time>
   <energy>
    <i name="e_fr_energy">    -47.83082029 </i>
    <i name="e_wo_entrp">    -47.83295936 </i>
    <i name="e_0_energy">    -47.83153332 </i>
   </energy>
  </scstep>
  <scstep>
   <time name="diag">    0.04    0.04</time>
   <time name="diis">    0.21    0.21</time>
   <time name="orth">    0.00    0.00</time>
   <time name="total">    0.42    0.42</time>
   <energy>
    <i name="e_fr_energy">    -47.74903127 </i>
    <i name="e_wo_entrp">    -47.75117912 </i>
    <i name="e_0_energy">    -47.74974722 </i>
   </energy>
  </scstep>
  <scstep>
   <time name="diag">    0.04    0.04</time>
   <time name="diis">    0.21    0.21</time>
   <time name="orth">    0.00    0.00</time>
   <time name="total">    0.42    0.42</time>
   <energy>
    <i name="e_fr_energy">    -47.72914179 </i>
    <i name="e_wo_entrp">    -47.73135133 </i>
    <i name="e_0_energy">    -47.72987830 </i>
   </energy>
  </scstep>
  <scstep>
   <time name="diag">    0.04    0.04</time>
   <time name="diis">    0.21    0.21</time>
   <time name="orth">    0.00    0.00</time>
   <time name="total">    0.42    0.42</time>
   <energy>
    <i name="e_fr_energy">    -47.72947022 </i>
    <i name="e_wo_entrp">    -47.73157651 </i>
    <i name="e_0_energy">    -47.73017232 </i>
   </energy>
  </scstep>
  <scstep>
   <time name="diag">    0.04    0.04</time>
   <time name="diis">    0.21    0.21</time>
   <time name="orth">    0.00    0.00</time>
   <time name="total">    0.42    0.43</time>
   <energy>
    <i name="e_fr_energy">    -47.72519405 </i>
    <i name="e_wo_entrp">    -47.72733859 </i>
    <i name="e_0_energy">    -47.72590889 </i>
   </energy>
  </scstep>
  <scstep>
   <time name="diag">    0.04    0.04</time>
   <time name="diis">    0.21    0.21</time>
   <time name="orth">    0.00    0.00</time>
   <time name="total">    0.42    0.42</time>
   <energy>
    <i name="e_fr_energy">    -47.72505663 </i>
    <i name="e_wo_entrp">    -47.72721028 </i>
    <i name="e_0_energy">    -47.72577451 </i>
   </energy>
  </scstep>
  <scstep>
   <time name="diag">    0.04    0.04</time>
   <time name="diis">    0.21    0.21</time>
   <time name="orth">    0.00    0.00</time>
   <time name="total">    0.42    0.43</time>
   <energy>
    <i name="e_fr_energy">    -47.72505778 </i>
    <i name="e_wo_entrp">    -47.72721021 </i>
    <i name="e_0_energy">    -47.72577526 </i>
   </energy>
  </scstep>
  <scstep>
   <time name="diag">    0.04    0.04</time>
   <time name="diis">    0.21    0.21</time>
   <time name="orth">    0.00    0.00</time>
   <time name="total">    0.42    0.42</time>
   <energy>
    <i name="e_fr_energy">    -47.72505778 </i>
    <i name="e_wo_entrp">    -47.72721083 </i>
    <i name="e_0_energy">    -47.72577546 </i>
   </energy>
  </scstep>
  <scstep>
   <time name="diag">    0.04    0.04</time>
   <time name="diis">    0.16    0.15</time>
   <time name="orth">    0.00    0.00</time>
   <time name="total">    0.26    0.26</time>
   <energy>
    <i name="alphaZ">     77.31604428 </i>
    <i name="ewald">  -1427.26586825 </i>
    <i name="hartreedc">   -566.57927849 </i>
    <i name="XCdc">    -75.69251741 </i>
    <i name="pawpsdc">   2233.57750192 </i>
    <i name="pawaedc">  -2034.37495443 </i>
    <i name="eentropy">      0.00215298 </i>
    <i name="bandstr">    -75.90801639 </i>
    <i name="atom">   1821.19987801 </i>
    <i name="e_fr_energy">    -47.72505778 </i>
    <i name="e_wo_entrp">    -47.72721076 </i>
    <i name="e_0_energy">    -47.72577544 </i>
   </energy>
  </scstep>
  <structure>
   <crystal>
    <varray name="basis" >
     <v>       4.22829103       0.00000000       0.00000000 </v>
     <v>       0.00000000       4.22829103       0.00000000 </v>
     <v>       0.00000000       0.00000000       4.22829103 </v>
    </varray>
    <i name="volume">     75.59526903 </i>
    <varray name="rec_basis" >
     <v>       0.23650217       0.00000000       0.00000000 </v>
     <v>       0.00000000       0.23650217       0.00000000 </v>
     <v>       0.00000000       0.00000000       0.23650217 </v>
    </varray>
   </crystal>
   <varray name="positions" >
    <v>       0.00000000       0.00000000       0.00000000 </v>
    <v>       0.00000000       0.50000000       0.50000000 </v>
    <v>       0.50000000       0.00000000       0.50000000 </v>
    <v>       0.50000000       0.50000000       0.00000000 </v>
    <v>       0.50000000       0.50000000       0.50000000 </v>
    <v>       0.50000000       0.00000000       0.00000000 </v>
    <v>       0.00000000       0.50000000       0.00000000 </v>
    <v>       0.00000000       0.00000000       0.50000000 </v>
   </varray>
  </structure>
  <varray name="forces" >
   <v>      -0.00000000      -0.00000000      -0.00000000 </v>
   <v>       0.00000000      -0.00000000       0.00000000 </v>
   <v>      -0.00000000       0.00000000      -0.00000000 </v>
   <v>      -0.00000000      -0.00000000       0.00000000 </v>
   <v>       0.00000000       0.00000000      -0.00000000 </v>
   <v>       0.00000000       0.00000000      -0.00000000 </v>
   <v>      -0.00000000      -0.00000000      -0.00000000 </v>
   <v>      -0.00000000       0.00000000       0.00000000 </v>
  </varray>
  <varray name="stress" >
   <v>     -29.47679253       0.00000000       0.00000000 </v>
   <v>      -0.00000000     -29.47679253       0.00000000 </v>
   <v>      -0.00000000      -0.00000000     -29.47679253 </v>
  </varray>
  <energy>
   <i name="e_fr_energy">    -47.72505778 </i>
   <i name="e_wo_entrp">    -47.72577544 </i>
   <i name="e_0_energy">      0.00215298 </i>
  </energy>
  <time name="totalsc">    6.67    6.74</time>
  <eigenvalues>
   <array>
    <dimension dim="1">band</dimension>
    <dimension dim="2">kpoint</dimension>
    <dimension dim="3">spin</dimension>
    <field>eigene</field>
    <field>occ</field>
    <set>
     <set comment="spin 1">
      <set comment="kpoint 1">
       <r>  -14.1080    1.0000 </r>
       <r>  -12.6018    1.0000 </r>
       <r>  -12.6018    1.0000 </r>
       <r>  -12.6018    1.0000 </r>
       <r>   -0.9431    1.0000 </r>
       <r>   -0.9431    1.0000 </r>
       <r>   -0.9431    1.0000 </r>
       <r>    1.7611    1.0000 </r>
       <r>    1.7611    1.0000 </r>
       <r>    1.7611    1.0000 </r>
       <r>    1.7611    1.0000 </r>
       <r>    1.7611    1.0000 </r>
       <r>    1.7611    1.0000 </r>
       <r>    3.0912    0.9893 </r>
       <r>    3.0912    0.9893 </r>
       <r>    3.0912    0.9893 </r>
       <r>    7.7141   -0.0000 </r>
       <r>   12.2146    0.0000 </r>
       <r>   12.2146    0.0000 </r>
       <r>   12.2146    0.0000 </r>
       <r>   12.9472    0.0000 </r>
       <r>   12.9472    0.0000 </r>
       <r>   12.9472    0.0000 </r>
       <r>   16.0946    0.0000 </r>
      </set>
      <set comment="kpoint 2">
       <r>  -13.7465    1.0000 </r>
       <r>  -12.9933    1.0000 </r>
       <r>  -12.5636    1.0000 </r>
       <r>  -12.5636    1.0000 </r>
       <r>   -0.4210    1.0000 </r>
       <r>   -0.4210    1.0000 </r>
       <r>   -0.3061    1.0000 </r>
       <r>    0.8820    1.0000 </r>
       <r>    0.8820    1.0000 </r>
       <r>    1.4442    1.0000 </r>
       <r>    1.4442    1.0000 </r>
       <r>    1.5181    1.0000 </r>
       <r>    2.0483    1.0000 </r>
       <r>    2.0483    1.0000 </r>
       <r>    2.7096    1.0004 </r>
       <r>    2.7096    1.0004 </r>
       <r>    9.6188    0.0000 </r>
       <r>   12.2705    0.0000 </r>
       <r>   13.1211    0.0000 </r>
       <r>   13.6137    0.0000 </r>
       <r>   13.6137    0.0000 </r>
       <r>   14.3849    0.0000 </r>
       <r>   14.3932    0.0000 </r>
       <r>   15.4945    0.0000 </r>
      </set>
      <set comment="kpoint 3">
       <r>  -13.4440    1.0000 </r>
       <r>  -12.8482    1.0000 </r>
       <r>  -12.8482    1.0000 </r>
       <r>  -12.6311    1.0000 </r>
       <r>   -0.4067    1.0000 </r>
       <r>   -0.4067    1.0000 </r>
       <r>   -0.0923    1.0000 </r>
       <r>    0.0684    1.0000 </r>
       <r>    0.4899    1.0000 </r>
       <r>    1.2671    1.0000 </r>
       <r>    1.2671    1.0000 </r>
       <r>    2.0909    1.0000 </r>
       <r>    2.0909    1.0000 </r>
       <r>    2.1075    1.0000 </r>
       <r>    2.1690    1.0000 </r>
       <r>    2.7809    1.0022 </r>
       <r>   10.6754    0.0000 </r>
       <r>   12.9945    0.0000 </r>
       <r>   12.9945    0.0000 </r>
       <r>   13.3370    0.0000 </r>
       <r>   14.1319    0.0000 </r>
       <r>   14.1319    0.0000 </r>
       <r>   15.2354    0.0000 </r>
       <r>   15.2690    0.0000 </r>
      </set>
      <set comment="kpoint 4">
       <r>  -13.2116    1.0000 </r>
       <r>  -12.7998    1.0000 </r>
       <r>  -12.7998    1.0000 </r>
       <r>  -12.7998    1.0000 </r>
       <r>   -1.0276    1.0000 </r>
       <r>   -1.0276    1.0000 </r>
       <r>   -1.0276    1.0000 </r>
       <r>   -0.5390    1.0000 </r>
       <r>    1.6738    1.0000 </r>
       <r>    1.6738    1.0000 </r>
       <r>    1.6738    1.0000 </r>
       <r>    2.2651    1.0000 </r>
       <r>    2.2651    1.0000 </r>
       <r>    2.2651    1.0000 </r>
       <r>    2.6000    1.0000 </r>
       <r>    2.6000    1.0000 </r>
       <r>   10.6777    0.0000 </r>
       <r>   12.0159    0.0000 </r>
       <r>   12.0159    0.0000 </r>
       <r>   12.0159    0.0000 </r>
       <r>   15.2018    0.0000 </r>
       <r>   15.2018    0.0000 </r>
       <r>   15.2018    0.0000 </r>
       <r>   15.3403    0.0000 </r>
      </set>
     </set>
    </set>
   </array>
  </eigenvalues>
  <separator name="orbital magnetization" >
   <v name="MAGDIPOLOUT">      0.00000000      0.00000000      0.00000000</v>
  </separator>
  <dos>
   <i name="efermi">      3.25061393 </i>
   <total>
    <array>
     <dimension dim="1">gridpoints</dimension>
     <dimension dim="2">spin</dimension>
     <field>energy</field>
     <field>total</field>
     <field>integrated</field>
     <set>
      <set comment="spin 1">
       <r>   -16.1080     0.0000     0.0000 </r>
       <r>   -15.9940     0.0000     0.0000 </r>
       <r>   -15.8800     0.0000     0.0000 </r>
       <r>   -15.7660    -0.0000    -0.0000 </r>
       <r>   -15.6520    -0.0000    -0.0000 </r>
       <r>   -15.5379    -0.0000    -0.0000 </r>
       <r>   -15.4239    -0.0000    -0.0000 </r>
       <r>   -15.3099    -0.0000    -0.0000 </r>
       <r>   -15.1959    -0.0000    -0.0000 </r>
       <r>   -15.0819    -0.0000    -0.0000 </r>
       <r>   -14.9679    -0.0000    -0.0000 </r>
       <r>   -14.8539    -0.0000    -0.0000 </r>
       <r>   -14.7399    -0.0000    -0.0000 </r>
       <r>   -14.6259    -0.0005    -0.0001 </r>
       <r>   -14.5119    -0.0044    -0.0006 </r>
       <r>   -14.3979    -0.0146    -0.0022 </r>
       <r>   -14.2839     0.0126    -0.0008 </r>
       <r>   -14.1698     0.1493     0.0162 </r>
       <r>   -14.0558     0.2204     0.0414 </r>
       <r>   -13.9418     0.1880     0.0628 </r>
       <r>   -13.8278     0.7621     0.1497 </r>
       <r>   -13.7138     1.5567     0.3272 </r>
       <r>   -13.5998     1.6364     0.5137 </r>
       <r>   -13.4858     2.5518     0.8047 </r>
       <r>   -13.3718     3.6461     1.2204 </r>
       <r>   -13.2578     3.1040     1.5742 </r>
       <r>   -13.1438     2.1121     1.8150 </r>
       <r>   -13.0298     2.2681     2.0736 </r>
       <r>   -12.9157     7.2188     2.8966 </r>
       <r>   -12.8017    14.2402     4.5201 </r>
       <r>   -12.6877    14.3974     6.1615 </r>
       <r>   -12.5737    10.1200     7.3153 </r>
       <r>   -12.4597     5.4685     7.9388 </r>
       <r>   -12.3457     1.1597     8.0710 </r>
       <r>   -12.2317    -0.3722     8.0286 </r>
       <r>   -12.1177    -0.2127     8.0043 </r>
       <r>   -12.0037    -0.0351     8.0003 </r>
       <r>   -11.8897    -0.0026     8.0000 </r>
       <r>   -11.7757    -0.0001     8.0000 </r>
       <r>   -11.6617    -0.0000     8.0000 </r>
       <r>   -11.5476    -0.0000     8.0000 </r>
       <r>   -11.4336    -0.0000     8.0000 </r>
       <r>   -11.3196    -0.0000     8.0000 </r>
       <r>   -11.2056     0.0000     8.0000 </r>
       <r>   -11.0916     0.0000     8.0000 </r>
       <r>   -10.9776     0.0000     8.0000 </r>
       <r>   -10.8636     0.0000     8.0000 </r>
       <r>   -10.7496     0.0000     8.0000 </r>
       <r>   -10.6356     0.0000     8.0000 </r>
       <r>   -10.5216     0.0000     8.0000 </r>
       <r>   -10.4076     0.0000     8.0000 </r>
       <r>   -10.2936     0.0000     8.0000 </r>
       <r>   -10.1795     0.0000     8.0000 </r>
       <r>   -10.0655     0.0000     8.0000 </r>
       <r>    -9.9515     0.0000     8.0000 </r>
       <r>    -9.8375     0.0000     8.0000 </r>
       <r>    -9.7235     0.0000     8.0000 </r>
       <r>    -9.6095     0.0000     8.0000 </r>
       <r>    -9.4955     0.0000     8.0000 </r>
       <r>    -9.3815     0.0000     8.0000 </r>
       <r>    -9.2675     0.0000     8.0000 </r>
       <r>    -9.1535     0.0000     8.0000 </r>
       <r>    -9.0395     0.0000     8.0000 </r>
       <r>    -8.9254     0.0000     8.0000 </r>
       <r>    -8.8114     0.0000     8.0000 </r>
       <r>    -8.6974     0.0000     8.0000 </r>
       <r>    -8.5834     0.0000     8.0000 </r>
       <r>    -8.4694     0.0000     8.0000 </r>
       <r>    -8.3554     0.0000     8.0000 </r>
       <r>    -8.2414     0.0000     8.0000 </r>
       <r>    -8.1274     0.0000     8.0000 </r>
       <r>    -8.0134     0.0000     8.0000 </r>
       <r>    -7.8994     0.0000     8.0000 </r>
       <r>    -7.7854     0.0000     8.0000 </r>
       <r>    -7.6714     0.0000     8.0000 </r>
       <r>    -7.5573     0.0000     8.0000 </r>
       <r>    -7.4433     0.0000     8.0000 </r>
       <r>    -7.3293     0.0000     8.0000 </r>
       <r>    -7.2153     0.0000     8.0000 </r>
       <r>    -7.1013     0.0000     8.0000 </r>
       <r>    -6.9873     0.0000     8.0000 </r>
       <r>    -6.8733     0.0000     8.0000 </r>
       <r>    -6.7593     0.0000     8.0000 </r>
       <r>    -6.6453     0.0000     8.0000 </r>
       <r>    -6.5313     0.0000     8.0000 </r>
       <r>    -6.4173     0.0000     8.0000 </r>
       <r>    -6.3033     0.0000     8.0000 </r>
       <r>    -6.1892     0.0000     8.0000 </r>
       <r>    -6.0752     0.0000     8.0000 </r>
       <r>    -5.9612     0.0000     8.0000 </r>
       <r>    -5.8472     0.0000     8.0000 </r>
       <r>    -5.7332     0.0000     8.0000 </r>
       <r>    -5.6192     0.0000     8.0000 </r>
       <r>    -5.5052     0.0000     8.0000 </r>
       <r>    -5.3912     0.0000     8.0000 </r>
       <r>    -5.2772     0.0000     8.0000 </r>
       <r>    -5.1632     0.0000     8.0000 </r>
       <r>    -5.0492     0.0000     8.0000 </r>
       <r>    -4.9351     0.0000     8.0000 </r>
       <r>    -4.8211     0.0000     8.0000 </r>
       <r>    -4.7071     0.0000     8.0000 </r>
       <r>    -4.5931     0.0000     8.0000 </r>
       <r>    -4.4791     0.0000     8.0000 </r>
       <r>    -4.3651     0.0000     8.0000 </r>
       <r>    -4.2511     0.0000     8.0000 </r>
       <r>    -4.1371     0.0000     8.0000 </r>
       <r>    -4.0231     0.0000     8.0000 </r>
       <r>    -3.9091     0.0000     8.0000 </r>
       <r>    -3.7951     0.0000     8.0000 </r>
       <r>    -3.6811     0.0000     8.0000 </r>
       <r>    -3.5670     0.0000     8.0000 </r>
       <r>    -3.4530     0.0000     8.0000 </r>
       <r>    -3.3390     0.0000     8.0000 </r>
       <r>    -3.2250     0.0000     8.0000 </r>
       <r>    -3.1110     0.0000     8.0000 </r>
       <r>    -2.9970     0.0000     8.0000 </r>
       <r>    -2.8830     0.0000     8.0000 </r>
       <r>    -2.7690     0.0000     8.0000 </r>
       <r>    -2.6550    -0.0000     8.0000 </r>
       <r>    -2.5410    -0.0000     8.0000 </r>
       <r>    -2.4270    -0.0000     8.0000 </r>
       <r>    -2.3130    -0.0000     8.0000 </r>
       <r>    -2.1989    -0.0000     8.0000 </r>
       <r>    -2.0849    -0.0000     8.0000 </r>
       <r>    -1.9709    -0.0000     8.0000 </r>
       <r>    -1.8569    -0.0000     8.0000 </r>
       <r>    -1.7429    -0.0000     8.0000 </r>
       <r>    -1.6289    -0.0014     7.9998 </r>
       <r>    -1.5149    -0.0229     7.9972 </r>
       <r>    -1.4009    -0.1686     7.9780 </r>
       <r>    -1.2869    -0.3835     7.9343 </r>
       <r>    -1.1729     0.9975     8.0480 </r>
       <r>    -1.0589     5.5138     8.6766 </r>
       <r>    -0.9448     7.7497     9.5602 </r>
       <r>    -0.8308     3.7401     9.9866 </r>
       <r>    -0.7168    -0.1166     9.9733 </r>
       <r>    -0.6028     1.0469    10.0926 </r>
       <r>    -0.4888     7.3930    10.9355 </r>
       <r>    -0.3748    12.8296    12.3982 </r>
       <r>    -0.2608     9.6820    13.5020 </r>
       <r>    -0.1468     4.4967    14.0147 </r>
       <r>    -0.0328     4.4160    14.5181 </r>
       <r>     0.0812     5.0309    15.0917 </r>
       <r>     0.1952     2.9277    15.4255 </r>
       <r>     0.3092     0.7334    15.5091 </r>
       <r>     0.4233     1.6921    15.7020 </r>
       <r>     0.5373     3.3602    16.0851 </r>
       <r>     0.6513     2.1685    16.3323 </r>
       <r>     0.7653     1.2523    16.4751 </r>
       <r>     0.8793     2.8109    16.7956 </r>
       <r>     0.9933     2.7522    17.1093 </r>
       <r>     1.1073     1.5575    17.2869 </r>
       <r>     1.2213     4.3419    17.7819 </r>
       <r>     1.3353     7.9205    18.6849 </r>
       <r>     1.4493     7.6268    19.5545 </r>
       <r>     1.5633     7.2178    20.3773 </r>
       <r>     1.6773     8.7503    21.3750 </r>
       <r>     1.7914     7.1491    22.1900 </r>
       <r>     1.9054     3.3322    22.5699 </r>
       <r>     2.0194     7.8808    23.4684 </r>
       <r>     2.1334    17.7119    25.4877 </r>
       <r>     2.2474    18.1748    27.5598 </r>
       <r>     2.3614     9.4273    28.6346 </r>
       <r>     2.4754     2.7966    28.9534 </r>
       <r>     2.5894     4.4050    29.4556 </r>
       <r>     2.7034     8.8116    30.4602 </r>
       <r>     2.8174     8.2655    31.4025 </r>
       <r>     2.9314     3.6022    31.8132 </r>
       <r>     3.0455     0.7522    31.8990 </r>
       <r>     3.1595     0.5549    31.9622 </r>
       <r>     3.2735     0.3698    32.0044 </r>
       <r>     3.3875     0.0176    32.0064 </r>
       <r>     3.5015    -0.0430    32.0015 </r>
       <r>     3.6155    -0.0119    32.0001 </r>
       <r>     3.7295    -0.0012    32.0000 </r>
       <r>     3.8435    -0.0001    32.0000 </r>
       <r>     3.9575    -0.0000    32.0000 </r>
       <r>     4.0715    -0.0000    32.0000 </r>
       <r>     4.1855    -0.0000    32.0000 </r>
       <r>     4.2995    -0.0000    32.0000 </r>
       <r>     4.4136    -0.0000    32.0000 </r>
       <r>     4.5276     0.0000    32.0000 </r>
       <r>     4.6416     0.0000    32.0000 </r>
       <r>     4.7556     0.0000    32.0000 </r>
       <r>     4.8696     0.0000    32.0000 </r>
       <r>     4.9836     0.0000    32.0000 </r>
       <r>     5.0976     0.0000    32.0000 </r>
       <r>     5.2116     0.0000    32.0000 </r>
       <r>     5.3256     0.0000    32.0000 </r>
       <r>     5.4396     0.0000    32.0000 </r>
       <r>     5.5536     0.0000    32.0000 </r>
       <r>     5.6676     0.0000    32.0000 </r>
       <r>     5.7817     0.0000    32.0000 </r>
       <r>     5.8957     0.0000    32.0000 </r>
       <r>     6.0097    -0.0000    32.0000 </r>
       <r>     6.1237    -0.0000    32.0000 </r>
       <r>     6.2377    -0.0000    32.0000 </r>
       <r>     6.3517    -0.0000    32.0000 </r>
       <r>     6.4657    -0.0000    32.0000 </r>
       <r>     6.5797    -0.0000    32.0000 </r>
       <r>     6.6937    -0.0000    32.0000 </r>
       <r>     6.8077    -0.0000    32.0000 </r>
       <r>     6.9217    -0.0000    32.0000 </r>
       <r>     7.0358    -0.0000    32.0000 </r>
       <r>     7.1498    -0.0002    32.0000 </r>
       <r>     7.2638    -0.0020    31.9998 </r>
       <r>     7.3778    -0.0105    31.9986 </r>
       <r>     7.4918    -0.0090    31.9975 </r>
       <r>     7.6058     0.0917    32.0080 </r>
       <r>     7.7198     0.2704    32.0388 </r>
       <r>     7.8338     0.2567    32.0681 </r>
       <r>     7.9478     0.0750    32.0767 </r>
       <r>     8.0618    -0.0117    32.0753 </r>
       <r>     8.1758    -0.0093    32.0743 </r>
       <r>     8.2898    -0.0016    32.0741 </r>
       <r>     8.4039    -0.0001    32.0741 </r>
       <r>     8.5179    -0.0000    32.0741 </r>
       <r>     8.6319    -0.0000    32.0741 </r>
       <r>     8.7459    -0.0000    32.0741 </r>
       <r>     8.8599    -0.0000    32.0741 </r>
       <r>     8.9739    -0.0001    32.0741 </r>
       <r>     9.0879    -0.0021    32.0738 </r>
       <r>     9.2019    -0.0213    32.0714 </r>
       <r>     9.3159    -0.0818    32.0621 </r>
       <r>     9.4299     0.0339    32.0659 </r>
       <r>     9.5439     0.8769    32.1659 </r>
       <r>     9.6579     1.7765    32.3684 </r>
       <r>     9.7720     1.2416    32.5100 </r>
       <r>     9.8860     0.2066    32.5336 </r>
       <r>    10.0000    -0.0903    32.5233 </r>
       <r>    10.1140    -0.0399    32.5187 </r>
       <r>    10.2280    -0.0455    32.5135 </r>
       <r>    10.3420    -0.2134    32.4892 </r>
       <r>    10.4560    -0.1678    32.4701 </r>
       <r>    10.5700     1.8941    32.6860 </r>
       <r>    10.6840     5.4505    33.3074 </r>
       <r>    10.7980     5.0843    33.8871 </r>
       <r>    10.9120     1.4467    34.0520 </r>
       <r>    11.0261    -0.2419    34.0244 </r>
       <r>    11.1401    -0.1816    34.0037 </r>
       <r>    11.2541    -0.0303    34.0003 </r>
       <r>    11.3681    -0.0025    34.0000 </r>
       <r>    11.4821    -0.0079    33.9991 </r>
       <r>    11.5961    -0.0813    33.9898 </r>
       <r>    11.7101    -0.3243    33.9528 </r>
       <r>    11.8241     0.0650    33.9602 </r>
       <r>    11.9381     3.2761    34.3337 </r>
       <r>    12.0521     7.1042    35.1437 </r>
       <r>    12.1661     6.2432    35.8555 </r>
       <r>    12.2801     3.4442    36.2481 </r>
       <r>    12.3942     1.6350    36.4345 </r>
       <r>    12.5082     0.2699    36.4653 </r>
       <r>    12.6222    -0.3424    36.4263 </r>
       <r>    12.7362    -0.4713    36.3725 </r>
       <r>    12.8502     1.2699    36.5173 </r>
       <r>    12.9642     6.2554    37.2305 </r>
       <r>    13.0782     8.7462    38.2276 </r>
       <r>    13.1922     5.5936    38.8653 </r>
       <r>    13.3062     3.3782    39.2505 </r>
       <r>    13.4202     3.2522    39.6212 </r>
       <r>    13.5342     3.0809    39.9725 </r>
       <r>    13.6483     3.4850    40.3698 </r>
       <r>    13.7623     2.2440    40.6257 </r>
       <r>    13.8763     0.0782    40.6346 </r>
       <r>    13.9903     0.8887    40.7359 </r>
       <r>    14.1043     5.1558    41.3237 </r>
       <r>    14.2183     7.1684    42.1410 </r>
       <r>    14.3323     5.1663    42.7300 </r>
       <r>    14.4463     3.5797    43.1381 </r>
       <r>    14.5603     1.8119    43.3446 </r>
       <r>    14.6743     0.1346    43.3600 </r>
       <r>    14.7883    -0.3127    43.3243 </r>
       <r>    14.9023    -0.6288    43.2526 </r>
       <r>    15.0164    -0.1882    43.2312 </r>
       <r>    15.1304     5.3294    43.8388 </r>
       <r>    15.2444    13.9870    45.4334 </r>
       <r>    15.3584    13.8958    47.0177 </r>
       <r>    15.4724     6.3735    47.7443 </r>
       <r>    15.5864     1.6496    47.9324 </r>
       <r>    15.7004     0.1954    47.9547 </r>
       <r>    15.8144    -0.1667    47.9357 </r>
       <r>    15.9284    -0.0655    47.9282 </r>
       <r>    16.0424     0.1684    47.9474 </r>
       <r>    16.1564     0.2981    47.9814 </r>
       <r>    16.2704     0.1684    48.0006 </r>
       <r>    16.3845     0.0144    48.0022 </r>
       <r>    16.4985    -0.0145    48.0006 </r>
       <r>    16.6125    -0.0044    48.0001 </r>
       <r>    16.7265    -0.0005    48.0000 </r>
       <r>    16.8405    -0.0000    48.0000 </r>
       <r>    16.9545    -0.0000    48.0000 </r>
       <r>    17.0685    -0.0000    48.0000 </r>
       <r>    17.1825    -0.0000    48.0000 </r>
       <r>    17.2965    -0.0000    48.0000 </r>
       <r>    17.4105    -0.0000    48.0000 </r>
       <r>    17.5245     0.0000    48.0000 </r>
       <r>    17.6386     0.0000    48.0000 </r>
       <r>    17.7526     0.0000    48.0000 </r>
       <r>    17.8666     0.0000    48.0000 </r>
       <r>    17.9806     0.0000    48.0000 </r>
       <r>    18.0946     0.0000    48.0000 </r>
      </set>
     </set>
    </array>
   </total>
  </dos>
 </calculation>
 <structure name="finalpos" >
  <crystal>
   <varray name="basis" >
    <v>       4.22829103       0.00000000       0.00000000 </v>
    <v>       0.00000000       4.22829103       0.00000000 </v>
    <v>       0.00000000       0.00000000       4.22829103 </v>
   </varray>
   <i name="volume">     75.59526903 </i>
   <varray name="rec_basis" >
    <v>       0.23650217       0.00000000       0.00000000 </v>
    <v>       0.00000000       0.23650217       0.00000000 </v>
    <v>       0.00000000       0.00000000       0.23650217 </v>
   </varray>
  </crystal>
  <varray name="positions" >
   <v>       0.00000000       0.00000000       0.00000000 </v>
   <v>       0.00000000       0.50000000       0.50000000 </v>
   <v>       0.50000000       0.00000000       0.50000000 </v>
   <v>       0.50000000       0.50000000       0.00000000 </v>
   <v>       0.50000000       0.50000000       0.50000000 </v>
   <v>       0.50000000       0.00000000       0.00000000 </v>
   <v>       0.00000000       0.50000000       0.00000000 </v>
   <v>       0.00000000       0.00000000       0.50000000 </v>
  </varray>
 </structure>
</modeling>
