<?xml version="1.0" encoding="ISO-8859-1"?>
<modeling>
 <generator>
  <i name="program" type="string">vasp </i>
  <i name="version" type="string">5.4.1  </i>
  <i name="subversion" type="string">24Jun15 (build Oct  9 2015 14:58:31) complex                          parallel </i>
  <i name="platform" type="string">IFC91_ompi </i>
  <i name="date" type="string">2017 09 13 </i>
  <i name="time" type="string">10:58:56 </i>
 </generator>
 <incar>
  <i type="string" name="PREC">accurate</i>
  <i type="string" name="ALGO"> Fast</i>
  <i type="int" name="IBRION">     2</i>
  <i name="EDIFF">      0.00000001</i>
  <i type="int" name="NSW">    30</i>
  <i type="int" name="ISIF">     2</i>
  <i type="string" name="LREAL"> A</i>
  <i type="logical" name="LWAVE"> F  </i>
  <i type="logical" name="LCHARG"> F  </i>
  <v type="int" name="KPOINT_BSE">    -1     0     0     0</v>
  <i type="string" name="GGA"> PE</i>
 </incar>
 <kpoints>
  <generation param="Monkhorst-Pack">
   <v type="int" name="divisions">       3        3        3 </v>
   <v name="usershift">      0.00000000       0.00000000       0.00000000 </v>
   <v name="genvec1">      0.33333333       0.00000000       0.00000000 </v>
   <v name="genvec2">      0.00000000       0.33333333       0.00000000 </v>
   <v name="genvec3">      0.00000000       0.00000000       0.33333333 </v>
   <v name="shift">      0.00000000       0.00000000       0.00000000 </v>
  </generation>
  <varray name="kpointlist" >
   <v>       0.00000000       0.00000000       0.00000000 </v>
   <v>       0.33333333       0.00000000       0.00000000 </v>
   <v>       0.33333333       0.33333333       0.00000000 </v>
   <v>       0.33333333       0.33333333       0.33333333 </v>
  </varray>
  <varray name="weights" >
   <v>       0.03703704 </v>
   <v>       0.22222222 </v>
   <v>       0.44444444 </v>
   <v>       0.29629630 </v>
  </varray>
 </kpoints>
 <parameters>
  <separator name="general" >
   <i type="string" name="SYSTEM">unknown system</i>
   <i type="logical" name="LCOMPAT"> F  </i>
  </separator>
  <separator name="electronic" >
   <i type="string" name="PREC">accura</i>
   <i name="ENMAX">    400.00000000</i>
   <i name="ENAUG">    605.39200000</i>
   <i name="EDIFF">      0.00000001</i>
   <i type="int" name="IALGO">    68</i>
   <i type="int" name="IWAVPR">    11</i>
   <i type="int" name="NBANDS">    24</i>
   <i name="NELECT">     32.00000000</i>
   <i type="int" name="TURBO">     0</i>
   <i type="int" name="IRESTART">     0</i>
   <i type="int" name="NREBOOT">     0</i>
   <i type="int" name="NMIN">     0</i>
   <i name="EREF">      0.00000000</i>
   <separator name="electronic smearing" >
    <i type="int" name="ISMEAR">     1</i>
    <i name="SIGMA">      0.20000000</i>
    <i name="KSPACING">      0.50000000</i>
    <i type="logical" name="KGAMMA"> T  </i>
   </separator>
   <separator name="electronic projectors" >
    <i type="logical" name="LREAL"> T  </i>
    <v name="ROPT">     -0.00025000     -0.00025000</v>
    <i type="int" name="LMAXPAW">  -100</i>
    <i type="int" name="LMAXMIX">     2</i>
    <i type="logical" name="NLSPLINE"> F  </i>
   </separator>
   <separator name="electronic startup" >
    <i type="int" name="ISTART">     0</i>
    <i type="int" name="ICHARG">     2</i>
    <i type="int" name="INIWAV">     1</i>
   </separator>
   <separator name="electronic spin" >
    <i type="int" name="ISPIN">     1</i>
    <i type="logical" name="LNONCOLLINEAR"> F  </i>
    <v name="MAGMOM">      1.00000000      1.00000000      1.00000000      1.00000000      1.00000000      1.00000000      1.00000000      1.00000000</v>
    <i name="NUPDOWN">     -1.00000000</i>
    <i type="logical" name="LSORBIT"> F  </i>
    <v name="SAXIS">      0.00000000      0.00000000      1.00000000</v>
    <i type="logical" name="LSPIRAL"> F  </i>
    <v name="QSPIRAL">      0.00000000      0.00000000      0.00000000</v>
    <i type="logical" name="LZEROZ"> F  </i>
   </separator>
   <separator name="electronic exchange-correlation" >
    <i type="logical" name="LASPH"> F  </i>
    <i type="logical" name="LMETAGGA"> F  </i>
   </separator>
   <separator name="electronic convergence" >
    <i type="int" name="NELM">    60</i>
    <i type="int" name="NELMDL">    -5</i>
    <i type="int" name="NELMIN">     2</i>
    <i name="ENINI">    400.00000000</i>
    <separator name="electronic convergence detail" >
     <i type="logical" name="LDIAG"> T  </i>
     <i type="logical" name="LSUBROT"> F  </i>
     <i name="WEIMIN">      0.00100000</i>
     <i name="EBREAK">      0.00000000</i>
     <i name="DEPER">      0.30000000</i>
     <i type="int" name="NRMM">     4</i>
     <i name="TIME">      0.40000000</i>
    </separator>
   </separator>
   <separator name="electronic mixer" >
    <i name="AMIX">      0.40000000</i>
    <i name="BMIX">      1.00000000</i>
    <i name="AMIN">      0.10000000</i>
    <i name="AMIX_MAG">      1.60000000</i>
    <i name="BMIX_MAG">      1.00000000</i>
    <separator name="electronic mixer details" >
     <i type="int" name="IMIX">     4</i>
     <i type="logical" name="MIXFIRST"> F  </i>
     <i type="int" name="MAXMIX">   -45</i>
     <i name="WC">    100.00000000</i>
     <i type="int" name="INIMIX">     1</i>
     <i type="int" name="MIXPRE">     1</i>
     <i type="int" name="MREMOVE">     5</i>
    </separator>
   </separator>
   <separator name="electronic dipolcorrection" >
    <i type="logical" name="LDIPOL"> F  </i>
    <i type="logical" name="LMONO"> F  </i>
    <i type="int" name="IDIPOL">     0</i>
    <i name="EPSILON">      1.00000000</i>
    <v name="DIPOL">   -100.00000000   -100.00000000   -100.00000000</v>
    <i name="EFIELD">      0.00000000</i>
   </separator>
  </separator>
  <separator name="grids" >
   <i type="int" name="NGX">    28</i>
   <i type="int" name="NGY">    28</i>
   <i type="int" name="NGZ">    28</i>
   <i type="int" name="NGXF">    56</i>
   <i type="int" name="NGYF">    56</i>
   <i type="int" name="NGZF">    56</i>
   <i type="logical" name="ADDGRID"> F  </i>
  </separator>
  <separator name="ionic" >
   <i type="int" name="NSW">    30</i>
   <i type="int" name="IBRION">     2</i>
   <i type="int" name="ISIF">     2</i>
   <i name="PSTRESS">      0.00000000</i>
   <i name="EDIFFG">      0.00000010</i>
   <i type="int" name="NFREE">     1</i>
   <i name="POTIM">      0.50000000</i>
   <i name="SMASS">     -3.00000000</i>
   <i name="SCALEE">      1.00000000</i>
  </separator>
  <separator name="ionic md" >
   <i name="TEBEG">      0.00010000</i>
   <i name="TEEND">      0.00010000</i>
   <i type="int" name="NBLOCK">     1</i>
   <i type="int" name="KBLOCK">    30</i>
   <i type="int" name="NPACO">   256</i>
   <i name="APACO">     16.00000000</i>
  </separator>
  <separator name="symmetry" >
   <i type="int" name="ISYM">     2</i>
   <i name="SYMPREC">      0.00001000</i>
  </separator>
  <separator name="dos" >
   <i type="logical" name="LORBIT"> T  </i>
   <v name="RWIGS">     -1.00000000     -1.00000000</v>
   <i type="int" name="NEDOS">   301</i>
   <i name="EMIN">     10.00000000</i>
   <i name="EMAX">    -10.00000000</i>
   <i name="EFERMI">      0.00000000</i>
  </separator>
  <separator name="writing" >
   <i type="int" name="NWRITE">     2</i>
   <i type="logical" name="LWAVE"> F  </i>
   <i type="logical" name="LCHARG"> F  </i>
   <i type="logical" name="LPARD"> F  </i>
   <i type="logical" name="LVTOT"> F  </i>
   <i type="logical" name="LVHAR"> F  </i>
   <i type="logical" name="LELF"> F  </i>
   <i type="logical" name="LOPTICS"> F  </i>
   <v name="STM">      0.00000000      0.00000000      0.00000000      0.00000000      0.00000000      0.00000000      0.00000000</v>
  </separator>
  <separator name="performance" >
   <i type="int" name="NPAR">     4</i>
   <i type="int" name="NSIM">     4</i>
   <i type="int" name="NBLK">    -1</i>
   <i type="logical" name="LPLANE"> T  </i>
   <i type="logical" name="LSCALAPACK"> T  </i>
   <i type="logical" name="LSCAAWARE"> F  </i>
   <i type="logical" name="LSCALU"> F  </i>
   <i type="logical" name="LASYNC"> F  </i>
   <i type="logical" name="LORBITALREAL"> F  </i>
  </separator>
  <separator name="miscellaneous" >
   <i type="int" name="IDIOT">     3</i>
   <i type="logical" name="LMUSIC"> F  </i>
   <v name="POMASS">     24.30500000     16.00000000</v>
   <v name="DARWINR">      0.00000000      0.00000000</v>
   <v name="DARWINV">      1.00000000      1.00000000</v>
   <i type="logical" name="LCORR"> T  </i>
  </separator>
  <i type="logical" name="GGA_COMPAT"> T  </i>
  <i type="logical" name="LBERRY"> F  </i>
  <i type="int" name="ICORELEVEL">     0</i>
  <i type="logical" name="LDAU"> F  </i>
  <i type="int" name="I_CONSTRAINED_M">     0</i>
  <separator name="electronic exchange-correlation" >
   <i type="string" name="GGA">PE</i>
   <i type="int" name="VOSKOWN">     0</i>
   <i type="logical" name="LHFCALC"> F  </i>
   <i type="string" name="PRECFOCK"></i>
   <i type="logical" name="LSYMGRAD"> F  </i>
   <i type="logical" name="LHFONE"> F  </i>
   <i type="logical" name="LRHFCALC"> F  </i>
   <i type="logical" name="LTHOMAS"> F  </i>
   <i type="logical" name="LMODELHF"> F  </i>
   <i name="ENCUT4O">     -1.00000000</i>
   <i type="int" name="EXXOEP">     0</i>
   <i type="int" name="FOURORBIT">     0</i>
   <i name="AEXX">      0.00000000</i>
   <i name="HFALPHA">      0.00000000</i>
   <i name="MCALPHA">      0.00000000</i>
   <i name="ALDAX">      1.00000000</i>
   <i name="AGGAX">      1.00000000</i>
   <i name="ALDAC">      1.00000000</i>
   <i name="AGGAC">      1.00000000</i>
   <i type="int" name="NKREDX">     1</i>
   <i type="int" name="NKREDY">     1</i>
   <i type="int" name="NKREDZ">     1</i>
   <i type="logical" name="SHIFTRED"> F  </i>
   <i type="logical" name="ODDONLY"> F  </i>
   <i type="logical" name="EVENONLY"> F  </i>
   <i type="int" name="LMAXFOCK">     0</i>
   <i type="int" name="NMAXFOCKAE">     0</i>
   <i type="logical" name="LFOCKAEDFT"> F  </i>
   <i name="HFSCREEN">      0.00000000</i>
   <i name="HFSCREENC">      0.00000000</i>
   <i type="int" name="NBANDSGWLOW">     0</i>
  </separator>
  <separator name="vdW DFT" >
   <i type="logical" name="LUSE_VDW"> F  </i>
   <i name="Zab_VDW">     -0.84910000</i>
   <i name="PARAM1">      0.12340000</i>
   <i name="PARAM2">      1.00000000</i>
   <i name="PARAM3">      0.00000000</i>
  </separator>
  <separator name="model GW" >
   <i type="int" name="MODEL_GW">     0</i>
   <i name="MODEL_EPS0">      5.55847566</i>
   <i name="MODEL_ALPHA">      1.00000000</i>
  </separator>
  <separator name="linear response parameters" >
   <i type="logical" name="LEPSILON"> F  </i>
   <i type="logical" name="LRPA"> F  </i>
   <i type="logical" name="LNABLA"> F  </i>
   <i type="logical" name="LVEL"> F  </i>
   <i type="int" name="KINTER">     0</i>
   <i name="CSHIFT">      0.10000000</i>
   <i name="OMEGAMAX">     -1.00000000</i>
   <i name="DEG_THRESHOLD">      0.00200000</i>
  </separator>
  <separator name="orbital magnetization" >
   <i type="logical" name="NUCIND"> F  </i>
   <v name="MAGPOS">      0.00000000      0.00000000      0.00000000</v>
   <i type="logical" name="LNICSALL"> T  </i>
   <i type="logical" name="ORBITALMAG"> F  </i>
   <i type="logical" name="LMAGBLOCH"> F  </i>
   <i type="logical" name="LCHIMAG"> F  </i>
   <i type="logical" name="LGAUGE"> T  </i>
   <i type="int" name="MAGATOM">     0</i>
   <v name="MAGDIPOL">      0.00000000      0.00000000      0.00000000</v>
   <v name="AVECCONST">      0.00000000      0.00000000      0.00000000</v>
  </separator>
  <separator name="response functions" >
   <i type="logical" name="LADDER"> F  </i>
   <i type="logical" name="LFXC"> F  </i>
   <i type="logical" name="LHARTREE"> T  </i>
   <i type="int" name="IBSE">     0</i>
   <v type="int" name="KPOINT">    -1     0     0     0</v>
   <i type="logical" name="LTCTE"> F  </i>
   <i type="logical" name="LTETE"> F  </i>
   <i type="logical" name="LTRIPLET"> F  </i>
   <i type="logical" name="LFXCEPS"> F  </i>
   <i type="logical" name="LFXHEG"> F  </i>
   <i type="int" name="NATURALO">     0</i>
   <i type="logical" name="L2ORDER"> F  </i>
   <i type="logical" name="LUSEW"> F  </i>
   <i name="ENCUTGW">     -2.00000000</i>
   <i name="ENCUTGWSOFT">     -2.00000000</i>
   <i name="ENCUTLF">     -1.00000000</i>
   <i type="int" name="LMAXMP2">    -1</i>
   <i name="SCISSOR">      0.00000000</i>
   <i type="int" name="NOMEGA">     0</i>
   <i type="int" name="NOMEGAR">     0</i>
   <i type="int" name="NBANDSGW">    -1</i>
   <i type="int" name="NBANDSO">    -1</i>
   <i type="int" name="NBANDSV">    -1</i>
   <i type="int" name="NELM">     1</i>
   <i type="int" name="NELMHF">     1</i>
   <i type="int" name="DIM">     3</i>
   <i type="int" name="ANTIRES">     0</i>
   <i name="OMEGAMAX">    -30.00000000</i>
   <i name="OMEGAMIN">    -30.00000000</i>
   <i name="OMEGATL">   -200.00000000</i>
   <i type="int" name="OMEGAGRID">     0</i>
   <i name="CSHIFT">     -0.10000000</i>
   <i type="logical" name="SELFENERGY"> F  </i>
   <i type="logical" name="LSPECTRAL"> F  </i>
   <i type="logical" name="LSPECTRALGW"> F  </i>
   <i type="logical" name="LSINGLES"> F  </i>
   <i type="logical" name="LFERMIGW"> F  </i>
   <i type="logical" name="ODDONLYGW"> F  </i>
   <i type="logical" name="EVENONLYGW"> F  </i>
   <i type="int" name="NKREDLFX">     1</i>
   <i type="int" name="NKREDLFY">     1</i>
   <i type="int" name="NKREDLFZ">     1</i>
   <i type="int" name="MAXMEM">  1800</i>
   <i type="int" name="TELESCOPE">     0</i>
   <i type="int" name="TAUPAR">     1</i>
   <i type="int" name="OMEGAPAR">    -1</i>
   <i name="LAMBDA">      1.00000000</i>
  </separator>
  <separator name="External order field" >
   <i name="OFIELD_KAPPA">      0.00000000</i>
   <v name="OFIELD_K">      0.00000000      0.00000000      0.00000000</v>
   <i name="OFIELD_Q6_NEAR">      0.00000000</i>
   <i name="OFIELD_Q6_FAR">      0.00000000</i>
   <i name="OFIELD_A">      0.00000000</i>
  </separator>
 </parameters>
 <atominfo>
  <atoms>       8 </atoms>
  <types>       2 </types>
  <array name="atoms" >
   <dimension dim="1">ion</dimension>
   <field type="string">element</field>
   <field type="int">atomtype</field>
   <set>
    <rc><c>Mg</c><c>   1</c></rc>
    <rc><c>Mg</c><c>   1</c></rc>
    <rc><c>Mg</c><c>   1</c></rc>
    <rc><c>Mg</c><c>   1</c></rc>
    <rc><c>O </c><c>   2</c></rc>
    <rc><c>O </c><c>   2</c></rc>
    <rc><c>O </c><c>   2</c></rc>
    <rc><c>O </c><c>   2</c></rc>
   </set>
  </array>
  <array name="atomtypes" >
   <dimension dim="1">type</dimension>
   <field type="int">atomspertype</field>
   <field type="string">element</field>
   <field>mass</field>
   <field>valence</field>
   <field type="string">pseudopotential</field>
   <set>
    <rc><c>   4</c><c>Mg</c><c>     24.30500000</c><c>      2.00000000</c><c>  PAW_PBE Mg 13Apr2007                  </c></rc>
    <rc><c>   4</c><c>O </c><c>     16.00000000</c><c>      6.00000000</c><c>  PAW_PBE O 08Apr2002                   </c></rc>
   </set>
  </array>
 </atominfo>
 <structure name="initialpos" >
  <crystal>
   <varray name="basis" >
    <v>       4.20047253       0.00000000       0.00000000 </v>
    <v>       0.00000000       4.20047253       0.00000000 </v>
    <v>       0.00000000       0.00000000       4.20047253 </v>
   </varray>
   <i name="volume">     74.11300886 </i>
   <varray name="rec_basis" >
    <v>       0.23806845       0.00000000       0.00000000 </v>
    <v>       0.00000000       0.23806845       0.00000000 </v>
    <v>       0.00000000       0.00000000       0.23806845 </v>
   </varray>
  </crystal>
  <varray name="positions" >
   <v>       0.00000000       0.00000000       0.00000000 </v>
   <v>       0.00000000       0.50000000       0.50000000 </v>
   <v>       0.50000000       0.00000000       0.50000000 </v>
   <v>       0.50000000       0.50000000       0.00000000 </v>
   <v>       0.50000000       0.50000000       0.50000000 </v>
   <v>       0.50000000       0.00000000       0.00000000 </v>
   <v>       0.00000000       0.50000000       0.00000000 </v>
   <v>       0.00000000       0.00000000       0.50000000 </v>
  </varray>
 </structure>
 <calculation>
  <scstep>
   <time name="dav">    0.34    0.35</time>
   <time name="total">    0.41    0.42</time>
   <energy>
    <i name="alphaZ">     78.86236517 </i>
    <i name="ewald">  -1436.71823556 </i>
    <i name="hartreedc">   -482.38000429 </i>
    <i name="XCdc">    -81.62364756 </i>
    <i name="pawpsdc">   1647.42468863 </i>
    <i name="pawaedc">  -1447.16842517 </i>
    <i name="eentropy">     -0.00641948 </i>
    <i name="bandstr">     45.04786924 </i>
    <i name="atom">   1821.19987801 </i>
    <i name="e_fr_energy">    144.63806899 </i>
    <i name="e_wo_entrp">    144.64448847 </i>
    <i name="e_0_energy">    144.64020882 </i>
   </energy>
  </scstep>
  <scstep>
   <time name="dav">    0.45    0.45</time>
   <time name="total">    0.45    0.45</time>
   <energy>
    <i name="e_fr_energy">    -44.91578027 </i>
    <i name="e_wo_entrp">    -44.92743738 </i>
    <i name="e_0_energy">    -44.91966597 </i>
   </energy>
  </scstep>
  <scstep>
   <time name="dav">    0.40    0.41</time>
   <time name="total">    0.40    0.41</time>
   <energy>
    <i name="e_fr_energy">    -53.75856479 </i>
    <i name="e_wo_entrp">    -53.76656872 </i>
    <i name="e_0_energy">    -53.76123277 </i>
   </energy>
  </scstep>
  <scstep>
   <time name="dav">    0.33    0.33</time>
   <time name="total">    0.33    0.33</time>
   <energy>
    <i name="e_fr_energy">    -53.80335237 </i>
    <i name="e_wo_entrp">    -53.81128068 </i>
    <i name="e_0_energy">    -53.80599514 </i>
   </energy>
  </scstep>
  <scstep>
   <time name="dav">    0.40    0.41</time>
   <time name="total">    0.51    0.52</time>
   <energy>
    <i name="e_fr_energy">    -53.80361142 </i>
    <i name="e_wo_entrp">    -53.81154141 </i>
    <i name="e_0_energy">    -53.80625475 </i>
   </energy>
  </scstep>
  <scstep>
   <time name="diag">    0.04    0.04</time>
   <time name="diis">    0.21    0.21</time>
   <time name="orth">    0.00    0.00</time>
   <time name="total">    0.42    0.42</time>
   <energy>
    <i name="e_fr_energy">    -47.79074104 </i>
    <i name="e_wo_entrp">    -47.79272397 </i>
    <i name="e_0_energy">    -47.79140201 </i>
   </energy>
  </scstep>
  <scstep>
   <time name="diag">    0.04    0.04</time>
   <time name="diis">    0.21    0.21</time>
   <time name="orth">    0.00    0.00</time>
   <time name="total">    0.42    0.42</time>
   <energy>
    <i name="e_fr_energy">    -47.71206461 </i>
    <i name="e_wo_entrp">    -47.71404458 </i>
    <i name="e_0_energy">    -47.71272460 </i>
   </energy>
  </scstep>
  <scstep>
   <time name="diag">    0.04    0.04</time>
   <time name="diis">    0.21    0.21</time>
   <time name="orth">    0.00    0.00</time>
   <time name="total">    0.42    0.42</time>
   <energy>
    <i name="e_fr_energy">    -47.69306772 </i>
    <i name="e_wo_entrp">    -47.69510089 </i>
    <i name="e_0_energy">    -47.69374545 </i>
   </energy>
  </scstep>
  <scstep>
   <time name="diag">    0.04    0.04</time>
   <time name="diis">    0.21    0.21</time>
   <time name="orth">    0.00    0.00</time>
   <time name="total">    0.41    0.42</time>
   <energy>
    <i name="e_fr_energy">    -47.69332323 </i>
    <i name="e_wo_entrp">    -47.69527325 </i>
    <i name="e_0_energy">    -47.69397323 </i>
   </energy>
  </scstep>
  <scstep>
   <time name="diag">    0.04    0.04</time>
   <time name="diis">    0.21    0.21</time>
   <time name="orth">    0.00    0.00</time>
   <time name="total">    0.42    0.42</time>
   <energy>
    <i name="e_fr_energy">    -47.68936057 </i>
    <i name="e_wo_entrp">    -47.69134113 </i>
    <i name="e_0_energy">    -47.69002076 </i>
   </energy>
  </scstep>
  <scstep>
   <time name="diag">    0.04    0.04</time>
   <time name="diis">    0.21    0.21</time>
   <time name="orth">    0.00    0.00</time>
   <time name="total">    0.42    0.42</time>
   <energy>
    <i name="e_fr_energy">    -47.68923155 </i>
    <i name="e_wo_entrp">    -47.69121949 </i>
    <i name="e_0_energy">    -47.68989420 </i>
   </energy>
  </scstep>
  <scstep>
   <time name="diag">    0.04    0.04</time>
   <time name="diis">    0.21    0.21</time>
   <time name="orth">    0.00    0.00</time>
   <time name="total">    0.42    0.42</time>
   <energy>
    <i name="e_fr_energy">    -47.68923228 </i>
    <i name="e_wo_entrp">    -47.69121924 </i>
    <i name="e_0_energy">    -47.68989460 </i>
   </energy>
  </scstep>
  <scstep>
   <time name="diag">    0.04    0.04</time>
   <time name="diis">    0.21    0.21</time>
   <time name="orth">    0.00    0.00</time>
   <time name="total">    0.41    0.42</time>
   <energy>
    <i name="e_fr_energy">    -47.68923233 </i>
    <i name="e_wo_entrp">    -47.69121973 </i>
    <i name="e_0_energy">    -47.68989479 </i>
   </energy>
  </scstep>
  <scstep>
   <time name="diag">    0.04    0.04</time>
   <time name="diis">    0.15    0.15</time>
   <time name="orth">    0.00    0.00</time>
   <time name="total">    0.26    0.26</time>
   <energy>
    <i name="alphaZ">     78.86236517 </i>
    <i name="ewald">  -1436.71823556 </i>
    <i name="hartreedc">   -562.20806013 </i>
    <i name="XCdc">    -75.41296842 </i>
    <i name="pawpsdc">   2247.29021269 </i>
    <i name="pawaedc">  -2048.12597273 </i>
    <i name="eentropy">      0.00198736 </i>
    <i name="bandstr">    -72.57843870 </i>
    <i name="atom">   1821.19987801 </i>
    <i name="e_fr_energy">    -47.68923232 </i>
    <i name="e_wo_entrp">    -47.69121968 </i>
    <i name="e_0_energy">    -47.68989477 </i>
   </energy>
  </scstep>
  <structure>
   <crystal>
    <varray name="basis" >
     <v>       4.20047253       0.00000000       0.00000000 </v>
     <v>       0.00000000       4.20047253       0.00000000 </v>
     <v>       0.00000000       0.00000000       4.20047253 </v>
    </varray>
    <i name="volume">     74.11300886 </i>
    <varray name="rec_basis" >
     <v>       0.23806845       0.00000000       0.00000000 </v>
     <v>       0.00000000       0.23806845       0.00000000 </v>
     <v>       0.00000000       0.00000000       0.23806845 </v>
    </varray>
   </crystal>
   <varray name="positions" >
    <v>       0.00000000       0.00000000       0.00000000 </v>
    <v>       0.00000000       0.50000000       0.50000000 </v>
    <v>       0.50000000       0.00000000       0.50000000 </v>
    <v>       0.50000000       0.50000000       0.00000000 </v>
    <v>       0.50000000       0.50000000       0.50000000 </v>
    <v>       0.50000000       0.00000000       0.00000000 </v>
    <v>       0.00000000       0.50000000       0.00000000 </v>
    <v>       0.00000000       0.00000000       0.50000000 </v>
   </varray>
  </structure>
  <varray name="forces" >
   <v>       0.00000000       0.00000000      -0.00000000 </v>
   <v>       0.00000000       0.00000000      -0.00000000 </v>
   <v>       0.00000000       0.00000000       0.00000000 </v>
   <v>      -0.00000000       0.00000000       0.00000000 </v>
   <v>       0.00000000      -0.00000000       0.00000000 </v>
   <v>      -0.00000000      -0.00000000      -0.00000000 </v>
   <v>       0.00000000      -0.00000000      -0.00000000 </v>
   <v>      -0.00000000      -0.00000000       0.00000000 </v>
  </varray>
  <varray name="stress" >
   <v>       3.14168759       0.00000000       0.00000000 </v>
   <v>       0.00000000       3.14168759       0.00000000 </v>
   <v>      -0.00000000       0.00000000       3.14168759 </v>
  </varray>
  <energy>
   <i name="e_fr_energy">    -47.68923232 </i>
   <i name="e_wo_entrp">    -47.68989477 </i>
   <i name="e_0_energy">      0.00198736 </i>
  </energy>
  <time name="totalsc">    6.63    6.74</time>
  <eigenvalues>
   <array>
    <dimension dim="1">band</dimension>
    <dimension dim="2">kpoint</dimension>
    <dimension dim="3">spin</dimension>
    <field>eigene</field>
    <field>occ</field>
    <set>
     <set comment="spin 1">
      <set comment="kpoint 1">
       <r>  -14.0619    1.0000 </r>
       <r>  -12.4991    1.0000 </r>
       <r>  -12.4991    1.0000 </r>
       <r>  -12.4991    1.0000 </r>
       <r>   -0.8765    1.0000 </r>
       <r>   -0.8765    1.0000 </r>
       <r>   -0.8765    1.0000 </r>
       <r>    1.8798    1.0000 </r>
       <r>    1.8798    1.0000 </r>
       <r>    1.8798    1.0000 </r>
       <r>    1.8798    1.0000 </r>
       <r>    1.8798    1.0000 </r>
       <r>    1.8798    1.0000 </r>
       <r>    3.2370    0.9915 </r>
       <r>    3.2370    0.9915 </r>
       <r>    3.2370    0.9915 </r>
       <r>    8.0541   -0.0000 </r>
       <r>   12.3866    0.0000 </r>
       <r>   12.3866    0.0000 </r>
       <r>   12.3866    0.0000 </r>
       <r>   13.3111    0.0000 </r>
       <r>   13.3111    0.0000 </r>
       <r>   13.3111    0.0000 </r>
       <r>   16.4501    0.0000 </r>
      </set>
      <set comment="kpoint 2">
       <r>  -13.6877    1.0000 </r>
       <r>  -12.9030    1.0000 </r>
       <r>  -12.4585    1.0000 </r>
       <r>  -12.4585    1.0000 </r>
       <r>   -0.3465    1.0000 </r>
       <r>   -0.3465    1.0000 </r>
       <r>   -0.2180    1.0000 </r>
       <r>    0.9803    1.0000 </r>
       <r>    0.9803    1.0000 </r>
       <r>    1.5569    1.0000 </r>
       <r>    1.5569    1.0000 </r>
       <r>    1.6479    1.0000 </r>
       <r>    2.1786    1.0000 </r>
       <r>    2.1786    1.0000 </r>
       <r>    2.8465    1.0003 </r>
       <r>    2.8465    1.0003 </r>
       <r>    9.9596    0.0000 </r>
       <r>   12.6361    0.0000 </r>
       <r>   13.3055    0.0000 </r>
       <r>   13.8434    0.0000 </r>
       <r>   13.8434    0.0000 </r>
       <r>   14.7646    0.0000 </r>
       <r>   15.3090    0.0000 </r>
       <r>   15.8176    0.0000 </r>
      </set>
      <set comment="kpoint 3">
       <r>  -13.3719    1.0000 </r>
       <r>  -12.7529    1.0000 </r>
       <r>  -12.7529    1.0000 </r>
       <r>  -12.5279    1.0000 </r>
       <r>   -0.3209    1.0000 </r>
       <r>   -0.3209    1.0000 </r>
       <r>   -0.0076    1.0000 </r>
       <r>    0.1508    1.0000 </r>
       <r>    0.6030    1.0000 </r>
       <r>    1.3741    1.0000 </r>
       <r>    1.3741    1.0000 </r>
       <r>    2.2134    1.0000 </r>
       <r>    2.2134    1.0000 </r>
       <r>    2.2279    1.0000 </r>
       <r>    2.2954    1.0000 </r>
       <r>    2.9176    1.0018 </r>
       <r>   11.0174    0.0000 </r>
       <r>   13.3453    0.0000 </r>
       <r>   13.3453    0.0000 </r>
       <r>   13.6117    0.0000 </r>
       <r>   14.3723    0.0000 </r>
       <r>   14.3723    0.0000 </r>
       <r>   15.5174    0.0000 </r>
       <r>   15.5430    0.0000 </r>
      </set>
      <set comment="kpoint 4">
       <r>  -13.1314    1.0000 </r>
       <r>  -12.7009    1.0000 </r>
       <r>  -12.7009    1.0000 </r>
       <r>  -12.7009    1.0000 </r>
       <r>   -0.9567    1.0000 </r>
       <r>   -0.9567    1.0000 </r>
       <r>   -0.9567    1.0000 </r>
       <r>   -0.4528    1.0000 </r>
       <r>    1.7888    1.0000 </r>
       <r>    1.7888    1.0000 </r>
       <r>    1.7888    1.0000 </r>
       <r>    2.3898    1.0000 </r>
       <r>    2.3898    1.0000 </r>
       <r>    2.3898    1.0000 </r>
       <r>    2.7293    1.0000 </r>
       <r>    2.7293    1.0000 </r>
       <r>   10.9831    0.0000 </r>
       <r>   12.3037    0.0000 </r>
       <r>   12.3037    0.0000 </r>
       <r>   12.3037    0.0000 </r>
       <r>   15.5520    0.0000 </r>
       <r>   15.5520    0.0000 </r>
       <r>   15.5520    0.0000 </r>
       <r>   15.6549    0.0000 </r>
      </set>
     </set>
    </set>
   </array>
  </eigenvalues>
  <separator name="orbital magnetization" >
   <v name="MAGDIPOLOUT">      0.00000000      0.00000000      0.00000000</v>
  </separator>
  <dos>
   <i name="efermi">      3.39815884 </i>
   <total>
    <array>
     <dimension dim="1">gridpoints</dimension>
     <dimension dim="2">spin</dimension>
     <field>energy</field>
     <field>total</field>
     <field>integrated</field>
     <set>
      <set comment="spin 1">
       <r>   -16.0619     0.0000     0.0000 </r>
       <r>   -15.9469     0.0000     0.0000 </r>
       <r>   -15.8319     0.0000     0.0000 </r>
       <r>   -15.7168    -0.0000    -0.0000 </r>
       <r>   -15.6018    -0.0000    -0.0000 </r>
       <r>   -15.4867    -0.0000    -0.0000 </r>
       <r>   -15.3717    -0.0000    -0.0000 </r>
       <r>   -15.2567    -0.0000    -0.0000 </r>
       <r>   -15.1416    -0.0000    -0.0000 </r>
       <r>   -15.0266    -0.0000    -0.0000 </r>
       <r>   -14.9115    -0.0000    -0.0000 </r>
       <r>   -14.7965    -0.0000    -0.0000 </r>
       <r>   -14.6815    -0.0000    -0.0000 </r>
       <r>   -14.5664    -0.0006    -0.0001 </r>
       <r>   -14.4514    -0.0054    -0.0007 </r>
       <r>   -14.3363    -0.0151    -0.0024 </r>
       <r>   -14.2213     0.0261     0.0006 </r>
       <r>   -14.1063     0.1769     0.0209 </r>
       <r>   -13.9912     0.2160     0.0458 </r>
       <r>   -13.8762     0.1785     0.0663 </r>
       <r>   -13.7611     0.8278     0.1615 </r>
       <r>   -13.6461     1.5816     0.3435 </r>
       <r>   -13.5311     1.5104     0.5172 </r>
       <r>   -13.4160     2.4369     0.7976 </r>
       <r>   -13.3010     3.5962     1.2113 </r>
       <r>   -13.1859     3.0543     1.5626 </r>
       <r>   -13.0709     2.1329     1.8080 </r>
       <r>   -12.9559     1.8480     2.0206 </r>
       <r>   -12.8408     5.7372     2.6806 </r>
       <r>   -12.7258    13.1029     4.1880 </r>
       <r>   -12.6107    14.6089     5.8686 </r>
       <r>   -12.4957    10.7017     7.0997 </r>
       <r>   -12.3807     6.4743     7.8445 </r>
       <r>   -12.2656     1.9382     8.0675 </r>
       <r>   -12.1506    -0.2603     8.0376 </r>
       <r>   -12.0355    -0.2688     8.0066 </r>
       <r>   -11.9205    -0.0530     8.0005 </r>
       <r>   -11.8055    -0.0044     8.0000 </r>
       <r>   -11.6904    -0.0002     8.0000 </r>
       <r>   -11.5754    -0.0000     8.0000 </r>
       <r>   -11.4603    -0.0000     8.0000 </r>
       <r>   -11.3453    -0.0000     8.0000 </r>
       <r>   -11.2303    -0.0000     8.0000 </r>
       <r>   -11.1152     0.0000     8.0000 </r>
       <r>   -11.0002     0.0000     8.0000 </r>
       <r>   -10.8851     0.0000     8.0000 </r>
       <r>   -10.7701     0.0000     8.0000 </r>
       <r>   -10.6551     0.0000     8.0000 </r>
       <r>   -10.5400     0.0000     8.0000 </r>
       <r>   -10.4250     0.0000     8.0000 </r>
       <r>   -10.3099     0.0000     8.0000 </r>
       <r>   -10.1949     0.0000     8.0000 </r>
       <r>   -10.0798     0.0000     8.0000 </r>
       <r>    -9.9648     0.0000     8.0000 </r>
       <r>    -9.8498     0.0000     8.0000 </r>
       <r>    -9.7347     0.0000     8.0000 </r>
       <r>    -9.6197     0.0000     8.0000 </r>
       <r>    -9.5046     0.0000     8.0000 </r>
       <r>    -9.3896     0.0000     8.0000 </r>
       <r>    -9.2746     0.0000     8.0000 </r>
       <r>    -9.1595     0.0000     8.0000 </r>
       <r>    -9.0445     0.0000     8.0000 </r>
       <r>    -8.9294     0.0000     8.0000 </r>
       <r>    -8.8144     0.0000     8.0000 </r>
       <r>    -8.6994     0.0000     8.0000 </r>
       <r>    -8.5843     0.0000     8.0000 </r>
       <r>    -8.4693     0.0000     8.0000 </r>
       <r>    -8.3542     0.0000     8.0000 </r>
       <r>    -8.2392     0.0000     8.0000 </r>
       <r>    -8.1242     0.0000     8.0000 </r>
       <r>    -8.0091     0.0000     8.0000 </r>
       <r>    -7.8941     0.0000     8.0000 </r>
       <r>    -7.7790     0.0000     8.0000 </r>
       <r>    -7.6640     0.0000     8.0000 </r>
       <r>    -7.5490     0.0000     8.0000 </r>
       <r>    -7.4339     0.0000     8.0000 </r>
       <r>    -7.3189     0.0000     8.0000 </r>
       <r>    -7.2038     0.0000     8.0000 </r>
       <r>    -7.0888     0.0000     8.0000 </r>
       <r>    -6.9738     0.0000     8.0000 </r>
       <r>    -6.8587     0.0000     8.0000 </r>
       <r>    -6.7437     0.0000     8.0000 </r>
       <r>    -6.6286     0.0000     8.0000 </r>
       <r>    -6.5136     0.0000     8.0000 </r>
       <r>    -6.3986     0.0000     8.0000 </r>
       <r>    -6.2835     0.0000     8.0000 </r>
       <r>    -6.1685     0.0000     8.0000 </r>
       <r>    -6.0534     0.0000     8.0000 </r>
       <r>    -5.9384     0.0000     8.0000 </r>
       <r>    -5.8234     0.0000     8.0000 </r>
       <r>    -5.7083     0.0000     8.0000 </r>
       <r>    -5.5933     0.0000     8.0000 </r>
       <r>    -5.4782     0.0000     8.0000 </r>
       <r>    -5.3632     0.0000     8.0000 </r>
       <r>    -5.2482     0.0000     8.0000 </r>
       <r>    -5.1331     0.0000     8.0000 </r>
       <r>    -5.0181     0.0000     8.0000 </r>
       <r>    -4.9030     0.0000     8.0000 </r>
       <r>    -4.7880     0.0000     8.0000 </r>
       <r>    -4.6730     0.0000     8.0000 </r>
       <r>    -4.5579     0.0000     8.0000 </r>
       <r>    -4.4429     0.0000     8.0000 </r>
       <r>    -4.3278     0.0000     8.0000 </r>
       <r>    -4.2128     0.0000     8.0000 </r>
       <r>    -4.0978     0.0000     8.0000 </r>
       <r>    -3.9827     0.0000     8.0000 </r>
       <r>    -3.8677     0.0000     8.0000 </r>
       <r>    -3.7526     0.0000     8.0000 </r>
       <r>    -3.6376     0.0000     8.0000 </r>
       <r>    -3.5226     0.0000     8.0000 </r>
       <r>    -3.4075     0.0000     8.0000 </r>
       <r>    -3.2925     0.0000     8.0000 </r>
       <r>    -3.1774     0.0000     8.0000 </r>
       <r>    -3.0624     0.0000     8.0000 </r>
       <r>    -2.9474     0.0000     8.0000 </r>
       <r>    -2.8323     0.0000     8.0000 </r>
       <r>    -2.7173     0.0000     8.0000 </r>
       <r>    -2.6022    -0.0000     8.0000 </r>
       <r>    -2.4872    -0.0000     8.0000 </r>
       <r>    -2.3722    -0.0000     8.0000 </r>
       <r>    -2.2571    -0.0000     8.0000 </r>
       <r>    -2.1421    -0.0000     8.0000 </r>
       <r>    -2.0270    -0.0000     8.0000 </r>
       <r>    -1.9120    -0.0000     8.0000 </r>
       <r>    -1.7970    -0.0000     8.0000 </r>
       <r>    -1.6819    -0.0000     8.0000 </r>
       <r>    -1.5669    -0.0011     7.9999 </r>
       <r>    -1.4518    -0.0192     7.9977 </r>
       <r>    -1.3368    -0.1531     7.9801 </r>
       <r>    -1.2218    -0.3874     7.9355 </r>
       <r>    -1.1067     0.8632     8.0348 </r>
       <r>    -0.9917     5.3509     8.6504 </r>
       <r>    -0.8766     7.8025     9.5480 </r>
       <r>    -0.7616     3.8563     9.9916 </r>
       <r>    -0.6465    -0.1488     9.9745 </r>
       <r>    -0.5315     0.6544    10.0498 </r>
       <r>    -0.4165     6.7058    10.8212 </r>
       <r>    -0.3014    12.6311    12.2743 </r>
       <r>    -0.1864    10.0996    13.4361 </r>
       <r>    -0.0713     4.7030    13.9772 </r>
       <r>     0.0437     4.3812    14.4812 </r>
       <r>     0.1587     5.1260    15.0709 </r>
       <r>     0.2738     3.0913    15.4265 </r>
       <r>     0.3888     0.5757    15.4927 </r>
       <r>     0.5039     1.0386    15.6122 </r>
       <r>     0.6189     3.1541    15.9751 </r>
       <r>     0.7339     2.7232    16.2883 </r>
       <r>     0.8490     1.4110    16.4507 </r>
       <r>     0.9640     2.6392    16.7543 </r>
       <r>     1.0791     2.9148    17.0896 </r>
       <r>     1.1941     1.4169    17.2526 </r>
       <r>     1.3091     3.5611    17.6623 </r>
       <r>     1.4242     7.4776    18.5225 </r>
       <r>     1.5392     7.5011    19.3854 </r>
       <r>     1.6543     6.7953    20.1671 </r>
       <r>     1.7693     8.5534    21.1511 </r>
       <r>     1.8843     8.0331    22.0753 </r>
       <r>     1.9994     3.5457    22.4832 </r>
       <r>     2.1144     5.5008    23.1160 </r>
       <r>     2.2295    15.6960    24.9216 </r>
       <r>     2.3445    19.2490    27.1361 </r>
       <r>     2.4595    11.7150    28.4838 </r>
       <r>     2.5746     3.5608    28.8934 </r>
       <r>     2.6896     3.1734    29.2585 </r>
       <r>     2.8047     7.7078    30.1452 </r>
       <r>     2.9197     8.9205    31.1714 </r>
       <r>     3.0347     4.9620    31.7422 </r>
       <r>     3.1498     1.1666    31.8764 </r>
       <r>     3.2648     0.5154    31.9357 </r>
       <r>     3.3799     0.5151    31.9950 </r>
       <r>     3.4949     0.1127    32.0079 </r>
       <r>     3.6099    -0.0455    32.0027 </r>
       <r>     3.7250    -0.0205    32.0003 </r>
       <r>     3.8400    -0.0027    32.0000 </r>
       <r>     3.9551    -0.0002    32.0000 </r>
       <r>     4.0701    -0.0000    32.0000 </r>
       <r>     4.1851    -0.0000    32.0000 </r>
       <r>     4.3002    -0.0000    32.0000 </r>
       <r>     4.4152    -0.0000    32.0000 </r>
       <r>     4.5303    -0.0000    32.0000 </r>
       <r>     4.6453     0.0000    32.0000 </r>
       <r>     4.7603     0.0000    32.0000 </r>
       <r>     4.8754     0.0000    32.0000 </r>
       <r>     4.9904     0.0000    32.0000 </r>
       <r>     5.1055     0.0000    32.0000 </r>
       <r>     5.2205     0.0000    32.0000 </r>
       <r>     5.3355     0.0000    32.0000 </r>
       <r>     5.4506     0.0000    32.0000 </r>
       <r>     5.5656     0.0000    32.0000 </r>
       <r>     5.6807     0.0000    32.0000 </r>
       <r>     5.7957     0.0000    32.0000 </r>
       <r>     5.9107     0.0000    32.0000 </r>
       <r>     6.0258     0.0000    32.0000 </r>
       <r>     6.1408     0.0000    32.0000 </r>
       <r>     6.2559     0.0000    32.0000 </r>
       <r>     6.3709    -0.0000    32.0000 </r>
       <r>     6.4859    -0.0000    32.0000 </r>
       <r>     6.6010    -0.0000    32.0000 </r>
       <r>     6.7160    -0.0000    32.0000 </r>
       <r>     6.8311    -0.0000    32.0000 </r>
       <r>     6.9461    -0.0000    32.0000 </r>
       <r>     7.0611    -0.0000    32.0000 </r>
       <r>     7.1762    -0.0000    32.0000 </r>
       <r>     7.2912    -0.0000    32.0000 </r>
       <r>     7.4063    -0.0000    32.0000 </r>
       <r>     7.5213    -0.0003    32.0000 </r>
       <r>     7.6363    -0.0035    31.9996 </r>
       <r>     7.7514    -0.0136    31.9980 </r>
       <r>     7.8664     0.0061    31.9987 </r>
       <r>     7.9815     0.1490    32.0158 </r>
       <r>     8.0965     0.2969    32.0500 </r>
       <r>     8.2115     0.2007    32.0731 </r>
       <r>     8.3266     0.0299    32.0765 </r>
       <r>     8.4416    -0.0150    32.0748 </r>
       <r>     8.5567    -0.0056    32.0742 </r>
       <r>     8.6717    -0.0007    32.0741 </r>
       <r>     8.7867    -0.0000    32.0741 </r>
       <r>     8.9018    -0.0000    32.0741 </r>
       <r>     9.0168    -0.0000    32.0741 </r>
       <r>     9.1319    -0.0000    32.0741 </r>
       <r>     9.2469    -0.0000    32.0741 </r>
       <r>     9.3620    -0.0004    32.0740 </r>
       <r>     9.4770    -0.0061    32.0733 </r>
       <r>     9.5920    -0.0437    32.0683 </r>
       <r>     9.7071    -0.0859    32.0584 </r>
       <r>     9.8221     0.3081    32.0939 </r>
       <r>     9.9372     1.3946    32.2543 </r>
       <r>    10.0522     1.7133    32.4514 </r>
       <r>    10.1672     0.6942    32.5312 </r>
       <r>    10.2823    -0.0239    32.5285 </r>
       <r>    10.3973    -0.0718    32.5202 </r>
       <r>    10.5124    -0.0328    32.5165 </r>
       <r>    10.6274    -0.1330    32.5012 </r>
       <r>    10.7424    -0.2836    32.4685 </r>
       <r>    10.8575     0.8609    32.5676 </r>
       <r>    10.9725     4.3542    33.0685 </r>
       <r>    11.0876     5.7709    33.7324 </r>
       <r>    11.2026     2.6148    34.0332 </r>
       <r>    11.3176     0.0267    34.0362 </r>
       <r>    11.4327    -0.2501    34.0075 </r>
       <r>    11.5477    -0.0593    34.0007 </r>
       <r>    11.6628    -0.0059    34.0000 </r>
       <r>    11.7778    -0.0098    33.9989 </r>
       <r>    11.8928    -0.0959    33.9878 </r>
       <r>    12.0079    -0.3573    33.9467 </r>
       <r>    12.1229     0.2075    33.9706 </r>
       <r>    12.2380     3.9495    34.4249 </r>
       <r>    12.3530     7.7262    35.3138 </r>
       <r>    12.4680     5.5381    35.9509 </r>
       <r>    12.5831     2.0629    36.1882 </r>
       <r>    12.6981     1.4409    36.3539 </r>
       <r>    12.8132     0.8289    36.4493 </r>
       <r>    12.9282    -0.0840    36.4396 </r>
       <r>    13.0432    -0.5507    36.3763 </r>
       <r>    13.1583     0.4550    36.4286 </r>
       <r>    13.2733     5.4058    37.0505 </r>
       <r>    13.3884     9.6348    38.1589 </r>
       <r>    13.5034     6.9771    38.9615 </r>
       <r>    13.6184     3.8472    39.4041 </r>
       <r>    13.7335     3.6416    39.8231 </r>
       <r>    13.8485     3.9176    40.2737 </r>
       <r>    13.9636     2.8180    40.5979 </r>
       <r>    14.0786     0.4379    40.6483 </r>
       <r>    14.1936     0.1290    40.6631 </r>
       <r>    14.3087     3.8304    41.1038 </r>
       <r>    14.4237     7.1011    41.9207 </r>
       <r>    14.5388     4.3892    42.4256 </r>
       <r>    14.6538     1.0427    42.5456 </r>
       <r>    14.7688     1.2502    42.6894 </r>
       <r>    14.8839     1.4115    42.8518 </r>
       <r>    14.9989     0.3462    42.8916 </r>
       <r>    15.1140    -0.2082    42.8677 </r>
       <r>    15.2290     0.1316    42.8828 </r>
       <r>    15.3440     1.7351    43.0824 </r>
       <r>    15.4591     7.6454    43.9619 </r>
       <r>    15.5741    15.1646    45.7065 </r>
       <r>    15.6892    12.9701    47.1986 </r>
       <r>    15.8042     5.0961    47.7848 </r>
       <r>    15.9192     1.2686    47.9308 </r>
       <r>    16.0343     0.1765    47.9511 </r>
       <r>    16.1493    -0.1483    47.9340 </r>
       <r>    16.2644    -0.0667    47.9263 </r>
       <r>    16.3794     0.1394    47.9424 </r>
       <r>    16.4944     0.2965    47.9765 </r>
       <r>    16.6095     0.1975    47.9992 </r>
       <r>    16.7245     0.0280    48.0024 </r>
       <r>    16.8396    -0.0150    48.0007 </r>
       <r>    16.9546    -0.0054    48.0001 </r>
       <r>    17.0696    -0.0006    48.0000 </r>
       <r>    17.1847    -0.0000    48.0000 </r>
       <r>    17.2997    -0.0000    48.0000 </r>
       <r>    17.4148    -0.0000    48.0000 </r>
       <r>    17.5298    -0.0000    48.0000 </r>
       <r>    17.6448    -0.0000    48.0000 </r>
       <r>    17.7599    -0.0000    48.0000 </r>
       <r>    17.8749     0.0000    48.0000 </r>
       <r>    17.9900     0.0000    48.0000 </r>
       <r>    18.1050     0.0000    48.0000 </r>
       <r>    18.2200     0.0000    48.0000 </r>
       <r>    18.3351     0.0000    48.0000 </r>
       <r>    18.4501     0.0000    48.0000 </r>
      </set>
     </set>
    </array>
   </total>
  </dos>
 </calculation>
 <structure name="finalpos" >
  <crystal>
   <varray name="basis" >
    <v>       4.20047253       0.00000000       0.00000000 </v>
    <v>       0.00000000       4.20047253       0.00000000 </v>
    <v>       0.00000000       0.00000000       4.20047253 </v>
   </varray>
   <i name="volume">     74.11300886 </i>
   <varray name="rec_basis" >
    <v>       0.23806845       0.00000000       0.00000000 </v>
    <v>       0.00000000       0.23806845       0.00000000 </v>
    <v>       0.00000000       0.00000000       0.23806845 </v>
   </varray>
  </crystal>
  <varray name="positions" >
   <v>       0.00000000       0.00000000       0.00000000 </v>
   <v>       0.00000000       0.50000000       0.50000000 </v>
   <v>       0.50000000       0.00000000       0.50000000 </v>
   <v>       0.50000000       0.50000000       0.00000000 </v>
   <v>       0.50000000       0.50000000       0.50000000 </v>
   <v>       0.50000000       0.00000000       0.00000000 </v>
   <v>       0.00000000       0.50000000       0.00000000 </v>
   <v>       0.00000000       0.00000000       0.50000000 </v>
  </varray>
 </structure>
</modeling>
