<?xml version="1.0" encoding="ISO-8859-1"?>
<modeling>
 <generator>
  <i name="program" type="string">vasp </i>
  <i name="version" type="string">5.4.1  </i>
  <i name="subversion" type="string">24Jun15 (build Oct  9 2015 14:58:31) complex                          parallel </i>
  <i name="platform" type="string">IFC91_ompi </i>
  <i name="date" type="string">2017 09 13 </i>
  <i name="time" type="string">10:58:56 </i>
 </generator>
 <incar>
  <i type="string" name="PREC">accurate</i>
  <i type="string" name="ALGO"> Fast</i>
  <i type="int" name="IBRION">     2</i>
  <i name="EDIFF">      0.00000001</i>
  <i type="int" name="NSW">    30</i>
  <i type="int" name="ISIF">     2</i>
  <i type="string" name="LREAL"> A</i>
  <i type="logical" name="LWAVE"> F  </i>
  <i type="logical" name="LCHARG"> F  </i>
  <v type="int" name="KPOINT_BSE">    -1     0     0     0</v>
  <i type="string" name="GGA"> PE</i>
 </incar>
 <kpoints>
  <generation param="Monkhorst-Pack">
   <v type="int" name="divisions">       3        3        3 </v>
   <v name="usershift">      0.00000000       0.00000000       0.00000000 </v>
   <v name="genvec1">      0.33333333       0.00000000       0.00000000 </v>
   <v name="genvec2">      0.00000000       0.33333333       0.00000000 </v>
   <v name="genvec3">      0.00000000       0.00000000       0.33333333 </v>
   <v name="shift">      0.00000000       0.00000000       0.00000000 </v>
  </generation>
  <varray name="kpointlist" >
   <v>       0.00000000       0.00000000       0.00000000 </v>
   <v>       0.33333333       0.00000000       0.00000000 </v>
   <v>       0.00000000       0.33333333       0.00000000 </v>
   <v>       0.33333333       0.33333333       0.00000000 </v>
   <v>       0.00000000       0.33333333       0.33333333 </v>
   <v>       0.33333333       0.33333333       0.33333333 </v>
   <v>       0.00000000      -0.33333333       0.33333333 </v>
   <v>       0.33333333      -0.33333333       0.33333333 </v>
  </varray>
  <varray name="weights" >
   <v>       0.03703704 </v>
   <v>       0.07407407 </v>
   <v>       0.14814815 </v>
   <v>       0.29629630 </v>
   <v>       0.07407407 </v>
   <v>       0.14814815 </v>
   <v>       0.07407407 </v>
   <v>       0.14814815 </v>
  </varray>
 </kpoints>
 <parameters>
  <separator name="general" >
   <i type="string" name="SYSTEM">unknown system</i>
   <i type="logical" name="LCOMPAT"> F  </i>
  </separator>
  <separator name="electronic" >
   <i type="string" name="PREC">accura</i>
   <i name="ENMAX">    400.00000000</i>
   <i name="ENAUG">    605.39200000</i>
   <i name="EDIFF">      0.00000001</i>
   <i type="int" name="IALGO">    68</i>
   <i type="int" name="IWAVPR">    11</i>
   <i type="int" name="NBANDS">    24</i>
   <i name="NELECT">     32.00000000</i>
   <i type="int" name="TURBO">     0</i>
   <i type="int" name="IRESTART">     0</i>
   <i type="int" name="NREBOOT">     0</i>
   <i type="int" name="NMIN">     0</i>
   <i name="EREF">      0.00000000</i>
   <separator name="electronic smearing" >
    <i type="int" name="ISMEAR">     1</i>
    <i name="SIGMA">      0.20000000</i>
    <i name="KSPACING">      0.50000000</i>
    <i type="logical" name="KGAMMA"> T  </i>
   </separator>
   <separator name="electronic projectors" >
    <i type="logical" name="LREAL"> T  </i>
    <v name="ROPT">     -0.00025000     -0.00025000</v>
    <i type="int" name="LMAXPAW">  -100</i>
    <i type="int" name="LMAXMIX">     2</i>
    <i type="logical" name="NLSPLINE"> F  </i>
   </separator>
   <separator name="electronic startup" >
    <i type="int" name="ISTART">     0</i>
    <i type="int" name="ICHARG">     2</i>
    <i type="int" name="INIWAV">     1</i>
   </separator>
   <separator name="electronic spin" >
    <i type="int" name="ISPIN">     1</i>
    <i type="logical" name="LNONCOLLINEAR"> F  </i>
    <v name="MAGMOM">      1.00000000      1.00000000      1.00000000      1.00000000      1.00000000      1.00000000      1.00000000      1.00000000</v>
    <i name="NUPDOWN">     -1.00000000</i>
    <i type="logical" name="LSORBIT"> F  </i>
    <v name="SAXIS">      0.00000000      0.00000000      1.00000000</v>
    <i type="logical" name="LSPIRAL"> F  </i>
    <v name="QSPIRAL">      0.00000000      0.00000000      0.00000000</v>
    <i type="logical" name="LZEROZ"> F  </i>
   </separator>
   <separator name="electronic exchange-correlation" >
    <i type="logical" name="LASPH"> F  </i>
    <i type="logical" name="LMETAGGA"> F  </i>
   </separator>
   <separator name="electronic convergence" >
    <i type="int" name="NELM">    60</i>
    <i type="int" name="NELMDL">    -5</i>
    <i type="int" name="NELMIN">     2</i>
    <i name="ENINI">    400.00000000</i>
    <separator name="electronic convergence detail" >
     <i type="logical" name="LDIAG"> T  </i>
     <i type="logical" name="LSUBROT"> F  </i>
     <i name="WEIMIN">      0.00100000</i>
     <i name="EBREAK">      0.00000000</i>
     <i name="DEPER">      0.30000000</i>
     <i type="int" name="NRMM">     4</i>
     <i name="TIME">      0.40000000</i>
    </separator>
   </separator>
   <separator name="electronic mixer" >
    <i name="AMIX">      0.40000000</i>
    <i name="BMIX">      1.00000000</i>
    <i name="AMIN">      0.10000000</i>
    <i name="AMIX_MAG">      1.60000000</i>
    <i name="BMIX_MAG">      1.00000000</i>
    <separator name="electronic mixer details" >
     <i type="int" name="IMIX">     4</i>
     <i type="logical" name="MIXFIRST"> F  </i>
     <i type="int" name="MAXMIX">   -45</i>
     <i name="WC">    100.00000000</i>
     <i type="int" name="INIMIX">     1</i>
     <i type="int" name="MIXPRE">     1</i>
     <i type="int" name="MREMOVE">     5</i>
    </separator>
   </separator>
   <separator name="electronic dipolcorrection" >
    <i type="logical" name="LDIPOL"> F  </i>
    <i type="logical" name="LMONO"> F  </i>
    <i type="int" name="IDIPOL">     0</i>
    <i name="EPSILON">      1.00000000</i>
    <v name="DIPOL">   -100.00000000   -100.00000000   -100.00000000</v>
    <i name="EFIELD">      0.00000000</i>
   </separator>
  </separator>
  <separator name="grids" >
   <i type="int" name="NGX">    28</i>
   <i type="int" name="NGY">    28</i>
   <i type="int" name="NGZ">    28</i>
   <i type="int" name="NGXF">    56</i>
   <i type="int" name="NGYF">    56</i>
   <i type="int" name="NGZF">    56</i>
   <i type="logical" name="ADDGRID"> F  </i>
  </separator>
  <separator name="ionic" >
   <i type="int" name="NSW">    30</i>
   <i type="int" name="IBRION">     2</i>
   <i type="int" name="ISIF">     2</i>
   <i name="PSTRESS">      0.00000000</i>
   <i name="EDIFFG">      0.00000010</i>
   <i type="int" name="NFREE">     1</i>
   <i name="POTIM">      0.50000000</i>
   <i name="SMASS">     -3.00000000</i>
   <i name="SCALEE">      1.00000000</i>
  </separator>
  <separator name="ionic md" >
   <i name="TEBEG">      0.00010000</i>
   <i name="TEEND">      0.00010000</i>
   <i type="int" name="NBLOCK">     1</i>
   <i type="int" name="KBLOCK">    30</i>
   <i type="int" name="NPACO">   256</i>
   <i name="APACO">     16.00000000</i>
  </separator>
  <separator name="symmetry" >
   <i type="int" name="ISYM">     2</i>
   <i name="SYMPREC">      0.00001000</i>
  </separator>
  <separator name="dos" >
   <i type="logical" name="LORBIT"> T  </i>
   <v name="RWIGS">     -1.00000000     -1.00000000</v>
   <i type="int" name="NEDOS">   301</i>
   <i name="EMIN">     10.00000000</i>
   <i name="EMAX">    -10.00000000</i>
   <i name="EFERMI">      0.00000000</i>
  </separator>
  <separator name="writing" >
   <i type="int" name="NWRITE">     2</i>
   <i type="logical" name="LWAVE"> F  </i>
   <i type="logical" name="LCHARG"> F  </i>
   <i type="logical" name="LPARD"> F  </i>
   <i type="logical" name="LVTOT"> F  </i>
   <i type="logical" name="LVHAR"> F  </i>
   <i type="logical" name="LELF"> F  </i>
   <i type="logical" name="LOPTICS"> F  </i>
   <v name="STM">      0.00000000      0.00000000      0.00000000      0.00000000      0.00000000      0.00000000      0.00000000</v>
  </separator>
  <separator name="performance" >
   <i type="int" name="NPAR">     4</i>
   <i type="int" name="NSIM">     4</i>
   <i type="int" name="NBLK">    -1</i>
   <i type="logical" name="LPLANE"> T  </i>
   <i type="logical" name="LSCALAPACK"> T  </i>
   <i type="logical" name="LSCAAWARE"> F  </i>
   <i type="logical" name="LSCALU"> F  </i>
   <i type="logical" name="LASYNC"> F  </i>
   <i type="logical" name="LORBITALREAL"> F  </i>
  </separator>
  <separator name="miscellaneous" >
   <i type="int" name="IDIOT">     3</i>
   <i type="logical" name="LMUSIC"> F  </i>
   <v name="POMASS">     24.30500000     16.00000000</v>
   <v name="DARWINR">      0.00000000      0.00000000</v>
   <v name="DARWINV">      1.00000000      1.00000000</v>
   <i type="logical" name="LCORR"> T  </i>
  </separator>
  <i type="logical" name="GGA_COMPAT"> T  </i>
  <i type="logical" name="LBERRY"> F  </i>
  <i type="int" name="ICORELEVEL">     0</i>
  <i type="logical" name="LDAU"> F  </i>
  <i type="int" name="I_CONSTRAINED_M">     0</i>
  <separator name="electronic exchange-correlation" >
   <i type="string" name="GGA">PE</i>
   <i type="int" name="VOSKOWN">     0</i>
   <i type="logical" name="LHFCALC"> F  </i>
   <i type="string" name="PRECFOCK"></i>
   <i type="logical" name="LSYMGRAD"> F  </i>
   <i type="logical" name="LHFONE"> F  </i>
   <i type="logical" name="LRHFCALC"> F  </i>
   <i type="logical" name="LTHOMAS"> F  </i>
   <i type="logical" name="LMODELHF"> F  </i>
   <i name="ENCUT4O">     -1.00000000</i>
   <i type="int" name="EXXOEP">     0</i>
   <i type="int" name="FOURORBIT">     0</i>
   <i name="AEXX">      0.00000000</i>
   <i name="HFALPHA">      0.00000000</i>
   <i name="MCALPHA">      0.00000000</i>
   <i name="ALDAX">      1.00000000</i>
   <i name="AGGAX">      1.00000000</i>
   <i name="ALDAC">      1.00000000</i>
   <i name="AGGAC">      1.00000000</i>
   <i type="int" name="NKREDX">     1</i>
   <i type="int" name="NKREDY">     1</i>
   <i type="int" name="NKREDZ">     1</i>
   <i type="logical" name="SHIFTRED"> F  </i>
   <i type="logical" name="ODDONLY"> F  </i>
   <i type="logical" name="EVENONLY"> F  </i>
   <i type="int" name="LMAXFOCK">     0</i>
   <i type="int" name="NMAXFOCKAE">     0</i>
   <i type="logical" name="LFOCKAEDFT"> F  </i>
   <i name="HFSCREEN">      0.00000000</i>
   <i name="HFSCREENC">      0.00000000</i>
   <i type="int" name="NBANDSGWLOW">     0</i>
  </separator>
  <separator name="vdW DFT" >
   <i type="logical" name="LUSE_VDW"> F  </i>
   <i name="Zab_VDW">     -0.84910000</i>
   <i name="PARAM1">      0.12340000</i>
   <i name="PARAM2">      1.00000000</i>
   <i name="PARAM3">      0.00000000</i>
  </separator>
  <separator name="model GW" >
   <i type="int" name="MODEL_GW">     0</i>
   <i name="MODEL_EPS0">      5.55847566</i>
   <i name="MODEL_ALPHA">      1.00000000</i>
  </separator>
  <separator name="linear response parameters" >
   <i type="logical" name="LEPSILON"> F  </i>
   <i type="logical" name="LRPA"> F  </i>
   <i type="logical" name="LNABLA"> F  </i>
   <i type="logical" name="LVEL"> F  </i>
   <i type="int" name="KINTER">     0</i>
   <i name="CSHIFT">      0.10000000</i>
   <i name="OMEGAMAX">     -1.00000000</i>
   <i name="DEG_THRESHOLD">      0.00200000</i>
  </separator>
  <separator name="orbital magnetization" >
   <i type="logical" name="NUCIND"> F  </i>
   <v name="MAGPOS">      0.00000000      0.00000000      0.00000000</v>
   <i type="logical" name="LNICSALL"> T  </i>
   <i type="logical" name="ORBITALMAG"> F  </i>
   <i type="logical" name="LMAGBLOCH"> F  </i>
   <i type="logical" name="LCHIMAG"> F  </i>
   <i type="logical" name="LGAUGE"> T  </i>
   <i type="int" name="MAGATOM">     0</i>
   <v name="MAGDIPOL">      0.00000000      0.00000000      0.00000000</v>
   <v name="AVECCONST">      0.00000000      0.00000000      0.00000000</v>
  </separator>
  <separator name="response functions" >
   <i type="logical" name="LADDER"> F  </i>
   <i type="logical" name="LFXC"> F  </i>
   <i type="logical" name="LHARTREE"> T  </i>
   <i type="int" name="IBSE">     0</i>
   <v type="int" name="KPOINT">    -1     0     0     0</v>
   <i type="logical" name="LTCTE"> F  </i>
   <i type="logical" name="LTETE"> F  </i>
   <i type="logical" name="LTRIPLET"> F  </i>
   <i type="logical" name="LFXCEPS"> F  </i>
   <i type="logical" name="LFXHEG"> F  </i>
   <i type="int" name="NATURALO">     0</i>
   <i type="logical" name="L2ORDER"> F  </i>
   <i type="logical" name="LUSEW"> F  </i>
   <i name="ENCUTGW">     -2.00000000</i>
   <i name="ENCUTGWSOFT">     -2.00000000</i>
   <i name="ENCUTLF">     -1.00000000</i>
   <i type="int" name="LMAXMP2">    -1</i>
   <i name="SCISSOR">      0.00000000</i>
   <i type="int" name="NOMEGA">     0</i>
   <i type="int" name="NOMEGAR">     0</i>
   <i type="int" name="NBANDSGW">    -1</i>
   <i type="int" name="NBANDSO">    -1</i>
   <i type="int" name="NBANDSV">    -1</i>
   <i type="int" name="NELM">     1</i>
   <i type="int" name="NELMHF">     1</i>
   <i type="int" name="DIM">     3</i>
   <i type="int" name="ANTIRES">     0</i>
   <i name="OMEGAMAX">    -30.00000000</i>
   <i name="OMEGAMIN">    -30.00000000</i>
   <i name="OMEGATL">   -200.00000000</i>
   <i type="int" name="OMEGAGRID">     0</i>
   <i name="CSHIFT">     -0.10000000</i>
   <i type="logical" name="SELFENERGY"> F  </i>
   <i type="logical" name="LSPECTRAL"> F  </i>
   <i type="logical" name="LSPECTRALGW"> F  </i>
   <i type="logical" name="LSINGLES"> F  </i>
   <i type="logical" name="LFERMIGW"> F  </i>
   <i type="logical" name="ODDONLYGW"> F  </i>
   <i type="logical" name="EVENONLYGW"> F  </i>
   <i type="int" name="NKREDLFX">     1</i>
   <i type="int" name="NKREDLFY">     1</i>
   <i type="int" name="NKREDLFZ">     1</i>
   <i type="int" name="MAXMEM">  1800</i>
   <i type="int" name="TELESCOPE">     0</i>
   <i type="int" name="TAUPAR">     1</i>
   <i type="int" name="OMEGAPAR">    -1</i>
   <i name="LAMBDA">      1.00000000</i>
  </separator>
  <separator name="External order field" >
   <i name="OFIELD_KAPPA">      0.00000000</i>
   <v name="OFIELD_K">      0.00000000      0.00000000      0.00000000</v>
   <i name="OFIELD_Q6_NEAR">      0.00000000</i>
   <i name="OFIELD_Q6_FAR">      0.00000000</i>
   <i name="OFIELD_A">      0.00000000</i>
  </separator>
 </parameters>
 <atominfo>
  <atoms>       8 </atoms>
  <types>       2 </types>
  <array name="atoms" >
   <dimension dim="1">ion</dimension>
   <field type="string">element</field>
   <field type="int">atomtype</field>
   <set>
    <rc><c>Mg</c><c>   1</c></rc>
    <rc><c>Mg</c><c>   1</c></rc>
    <rc><c>Mg</c><c>   1</c></rc>
    <rc><c>Mg</c><c>   1</c></rc>
    <rc><c>O </c><c>   2</c></rc>
    <rc><c>O </c><c>   2</c></rc>
    <rc><c>O </c><c>   2</c></rc>
    <rc><c>O </c><c>   2</c></rc>
   </set>
  </array>
  <array name="atomtypes" >
   <dimension dim="1">type</dimension>
   <field type="int">atomspertype</field>
   <field type="string">element</field>
   <field>mass</field>
   <field>valence</field>
   <field type="string">pseudopotential</field>
   <set>
    <rc><c>   4</c><c>Mg</c><c>     24.30500000</c><c>      2.00000000</c><c>  PAW_PBE Mg 13Apr2007                  </c></rc>
    <rc><c>   4</c><c>O </c><c>     16.00000000</c><c>      6.00000000</c><c>  PAW_PBE O 08Apr2002                   </c></rc>
   </set>
  </array>
 </atominfo>
 <structure name="initialpos" >
  <crystal>
   <varray name="basis" >
    <v>       4.20047253       0.00000000       0.00000000 </v>
    <v>       0.00000000       4.20047253       0.00840095 </v>
    <v>       0.00000000       0.00000000       4.20047253 </v>
   </varray>
   <i name="volume">     74.11300886 </i>
   <varray name="rec_basis" >
    <v>       0.23806845       0.00000000       0.00000000 </v>
    <v>       0.00000000       0.23806845       0.00000000 </v>
    <v>       0.00000000      -0.00047614       0.23806845 </v>
   </varray>
  </crystal>
  <varray name="positions" >
   <v>       0.00000000       0.00000000       0.00000000 </v>
   <v>       0.00000000       0.50000000       0.50000000 </v>
   <v>       0.50000000       0.00000000       0.50000000 </v>
   <v>       0.50000000       0.50000000       0.00000000 </v>
   <v>       0.50000000       0.50000000       0.50000000 </v>
   <v>       0.50000000       0.00000000       0.00000000 </v>
   <v>       0.00000000       0.50000000       0.00000000 </v>
   <v>       0.00000000       0.00000000       0.50000000 </v>
  </varray>
 </structure>
 <calculation>
  <scstep>
   <time name="dav">    0.71    0.71</time>
   <time name="total">    0.78    0.78</time>
   <energy>
    <i name="alphaZ">     78.86236517 </i>
    <i name="ewald">  -1436.71824450 </i>
    <i name="hartreedc">   -482.38027598 </i>
    <i name="XCdc">    -81.62365565 </i>
    <i name="pawpsdc">   1647.42468863 </i>
    <i name="pawaedc">  -1447.16842517 </i>
    <i name="eentropy">     -0.01163327 </i>
    <i name="bandstr">     20.35025224 </i>
    <i name="atom">   1821.19987801 </i>
    <i name="e_fr_energy">    119.93494947 </i>
    <i name="e_wo_entrp">    119.94658275 </i>
    <i name="e_0_energy">    119.93882723 </i>
   </energy>
  </scstep>
  <scstep>
   <time name="dav">    0.86    0.86</time>
   <time name="total">    0.86    0.86</time>
   <energy>
    <i name="e_fr_energy">    -46.36735778 </i>
    <i name="e_wo_entrp">    -46.36999633 </i>
    <i name="e_0_energy">    -46.36823730 </i>
   </energy>
  </scstep>
  <scstep>
   <time name="dav">    0.82    0.82</time>
   <time name="total">    0.82    0.83</time>
   <energy>
    <i name="e_fr_energy">    -53.76489722 </i>
    <i name="e_wo_entrp">    -53.77296810 </i>
    <i name="e_0_energy">    -53.76758751 </i>
   </energy>
  </scstep>
  <scstep>
   <time name="dav">    0.71    0.71</time>
   <time name="total">    0.71    0.71</time>
   <energy>
    <i name="e_fr_energy">    -53.80010114 </i>
    <i name="e_wo_entrp">    -53.80817330 </i>
    <i name="e_0_energy">    -53.80279186 </i>
   </energy>
  </scstep>
  <scstep>
   <time name="dav">    0.83    0.83</time>
   <time name="total">    0.93    0.94</time>
   <energy>
    <i name="e_fr_energy">    -53.80030634 </i>
    <i name="e_wo_entrp">    -53.80838133 </i>
    <i name="e_0_energy">    -53.80299801 </i>
   </energy>
  </scstep>
  <scstep>
   <time name="diag">    0.08    0.08</time>
   <time name="diis">    0.42    0.42</time>
   <time name="orth">    0.01    0.01</time>
   <time name="total">    0.66    0.66</time>
   <energy>
    <i name="e_fr_energy">    -47.78861979 </i>
    <i name="e_wo_entrp">    -47.79061683 </i>
    <i name="e_0_energy">    -47.78928547 </i>
   </energy>
  </scstep>
  <scstep>
   <time name="diag">    0.08    0.08</time>
   <time name="diis">    0.42    0.42</time>
   <time name="orth">    0.00    0.01</time>
   <time name="total">    0.66    0.66</time>
   <energy>
    <i name="e_fr_energy">    -47.70967606 </i>
    <i name="e_wo_entrp">    -47.71167083 </i>
    <i name="e_0_energy">    -47.71034098 </i>
   </energy>
  </scstep>
  <scstep>
   <time name="diag">    0.08    0.08</time>
   <time name="diis">    0.41    0.42</time>
   <time name="orth">    0.01    0.01</time>
   <time name="total">    0.66    0.66</time>
   <energy>
    <i name="e_fr_energy">    -47.69061513 </i>
    <i name="e_wo_entrp">    -47.69266480 </i>
    <i name="e_0_energy">    -47.69129835 </i>
   </energy>
  </scstep>
  <scstep>
   <time name="diag">    0.08    0.08</time>
   <time name="diis">    0.41    0.41</time>
   <time name="orth">    0.01    0.01</time>
   <time name="total">    0.66    0.66</time>
   <energy>
    <i name="e_fr_energy">    -47.69084747 </i>
    <i name="e_wo_entrp">    -47.69281292 </i>
    <i name="e_0_energy">    -47.69150262 </i>
   </energy>
  </scstep>
  <scstep>
   <time name="diag">    0.08    0.08</time>
   <time name="diis">    0.42    0.42</time>
   <time name="orth">    0.00    0.01</time>
   <time name="total">    0.66    0.66</time>
   <energy>
    <i name="e_fr_energy">    -47.68693793 </i>
    <i name="e_wo_entrp">    -47.68893420 </i>
    <i name="e_0_energy">    -47.68760335 </i>
   </energy>
  </scstep>
  <scstep>
   <time name="diag">    0.08    0.08</time>
   <time name="diis">    0.41    0.42</time>
   <time name="orth">    0.01    0.01</time>
   <time name="total">    0.66    0.66</time>
   <energy>
    <i name="e_fr_energy">    -47.68680977 </i>
    <i name="e_wo_entrp">    -47.68881353 </i>
    <i name="e_0_energy">    -47.68747769 </i>
   </energy>
  </scstep>
  <scstep>
   <time name="diag">    0.08    0.08</time>
   <time name="diis">    0.41    0.42</time>
   <time name="orth">    0.00    0.01</time>
   <time name="total">    0.66    0.66</time>
   <energy>
    <i name="e_fr_energy">    -47.68681050 </i>
    <i name="e_wo_entrp">    -47.68881327 </i>
    <i name="e_0_energy">    -47.68747809 </i>
   </energy>
  </scstep>
  <scstep>
   <time name="diag">    0.08    0.08</time>
   <time name="diis">    0.42    0.42</time>
   <time name="orth">    0.00    0.01</time>
   <time name="total">    0.66    0.66</time>
   <energy>
    <i name="e_fr_energy">    -47.68681055 </i>
    <i name="e_wo_entrp">    -47.68881377 </i>
    <i name="e_0_energy">    -47.68747829 </i>
   </energy>
  </scstep>
  <scstep>
   <time name="diag">    0.08    0.08</time>
   <time name="diis">    0.30    0.30</time>
   <time name="orth">    0.01    0.01</time>
   <time name="total">    0.44    0.44</time>
   <energy>
    <i name="alphaZ">     78.86236517 </i>
    <i name="ewald">  -1436.71824450 </i>
    <i name="hartreedc">   -562.20502905 </i>
    <i name="XCdc">    -75.41312784 </i>
    <i name="pawpsdc">   2247.54681032 </i>
    <i name="pawaedc">  -2048.38139224 </i>
    <i name="eentropy">      0.00200317 </i>
    <i name="bandstr">    -72.58007358 </i>
    <i name="atom">   1821.19987801 </i>
    <i name="e_fr_energy">    -47.68681054 </i>
    <i name="e_wo_entrp">    -47.68881371 </i>
    <i name="e_0_energy">    -47.68747827 </i>
   </energy>
  </scstep>
  <structure>
   <crystal>
    <varray name="basis" >
     <v>       4.20047253       0.00000000       0.00000000 </v>
     <v>       0.00000000       4.20047253       0.00840095 </v>
     <v>       0.00000000       0.00000000       4.20047253 </v>
    </varray>
    <i name="volume">     74.11300886 </i>
    <varray name="rec_basis" >
     <v>       0.23806845       0.00000000       0.00000000 </v>
     <v>       0.00000000       0.23806845       0.00000000 </v>
     <v>       0.00000000      -0.00047614       0.23806845 </v>
    </varray>
   </crystal>
   <varray name="positions" >
    <v>       0.00000000       0.00000000       0.00000000 </v>
    <v>       0.00000000       0.50000000       0.50000000 </v>
    <v>       0.50000000       0.00000000       0.50000000 </v>
    <v>       0.50000000       0.50000000       0.00000000 </v>
    <v>       0.50000000       0.50000000       0.50000000 </v>
    <v>       0.50000000       0.00000000       0.00000000 </v>
    <v>       0.00000000       0.50000000       0.00000000 </v>
    <v>       0.00000000       0.00000000       0.50000000 </v>
   </varray>
  </structure>
  <varray name="forces" >
   <v>      -0.00000000       0.00000000       0.00000000 </v>
   <v>      -0.00000000       0.00000000      -0.00000000 </v>
   <v>      -0.00000000      -0.00000000      -0.00000000 </v>
   <v>      -0.00000000      -0.00000000       0.00000000 </v>
   <v>      -0.00000000      -0.00000000      -0.00000000 </v>
   <v>      -0.00000000      -0.00000000       0.00000000 </v>
   <v>      -0.00000000      -0.00000000       0.00000000 </v>
   <v>       0.00000000      -0.00000000      -0.00000000 </v>
  </varray>
  <varray name="stress" >
   <v>       3.07371106       0.00000000       0.00000000 </v>
   <v>       0.00000000       2.58499978      -3.06342032 </v>
   <v>       0.00000000      -3.06342032       2.57273576 </v>
  </varray>
  <energy>
   <i name="e_fr_energy">    -47.68681054 </i>
   <i name="e_wo_entrp">    -47.68747827 </i>
   <i name="e_0_energy">      0.00200317 </i>
  </energy>
  <time name="totalsc">   11.23   11.31</time>
  <eigenvalues>
   <array>
    <dimension dim="1">band</dimension>
    <dimension dim="2">kpoint</dimension>
    <dimension dim="3">spin</dimension>
    <field>eigene</field>
    <field>occ</field>
    <set>
     <set comment="spin 1">
      <set comment="kpoint 1">
       <r>  -14.0621    1.0000 </r>
       <r>  -12.4992    1.0000 </r>
       <r>  -12.4992    1.0000 </r>
       <r>  -12.4992    1.0000 </r>
       <r>   -0.8766    1.0000 </r>
       <r>   -0.8766    1.0000 </r>
       <r>   -0.8766    1.0000 </r>
       <r>    1.8678    1.0000 </r>
       <r>    1.8797    1.0000 </r>
       <r>    1.8797    1.0000 </r>
       <r>    1.8797    1.0000 </r>
       <r>    1.8797    1.0000 </r>
       <r>    1.8917    1.0000 </r>
       <r>    3.2296    1.0003 </r>
       <r>    3.2368    0.9918 </r>
       <r>    3.2442    0.9820 </r>
       <r>    8.0540   -0.0000 </r>
       <r>   12.3861    0.0000 </r>
       <r>   12.3867    0.0000 </r>
       <r>   12.3867    0.0000 </r>
       <r>   13.3110    0.0000 </r>
       <r>   13.3110    0.0000 </r>
       <r>   13.3117    0.0000 </r>
       <r>   16.4499    0.0000 </r>
      </set>
      <set comment="kpoint 2">
       <r>  -13.6878    1.0000 </r>
       <r>  -12.9032    1.0000 </r>
       <r>  -12.4586    1.0000 </r>
       <r>  -12.4586    1.0000 </r>
       <r>   -0.3466    1.0000 </r>
       <r>   -0.3466    1.0000 </r>
       <r>   -0.2181    1.0000 </r>
       <r>    0.9802    1.0000 </r>
       <r>    0.9802    1.0000 </r>
       <r>    1.5567    1.0000 </r>
       <r>    1.5567    1.0000 </r>
       <r>    1.6477    1.0000 </r>
       <r>    2.1674    1.0000 </r>
       <r>    2.1895    1.0000 </r>
       <r>    2.8376    1.0003 </r>
       <r>    2.8552    1.0004 </r>
       <r>    9.9595    0.0000 </r>
       <r>   12.6355    0.0000 </r>
       <r>   13.3060    0.0000 </r>
       <r>   13.8433    0.0000 </r>
       <r>   13.8434    0.0000 </r>
       <r>   14.7646    0.0000 </r>
       <r>   15.3066    0.0000 </r>
       <r>   15.8175    0.0000 </r>
      </set>
      <set comment="kpoint 3">
       <r>  -13.6878    1.0000 </r>
       <r>  -12.9031    1.0000 </r>
       <r>  -12.4586    1.0000 </r>
       <r>  -12.4586    1.0000 </r>
       <r>   -0.3466    1.0000 </r>
       <r>   -0.3466    1.0000 </r>
       <r>   -0.2181    1.0000 </r>
       <r>    0.9801    1.0000 </r>
       <r>    0.9802    1.0000 </r>
       <r>    1.5568    1.0000 </r>
       <r>    1.5569    1.0000 </r>
       <r>    1.6478    1.0000 </r>
       <r>    2.1785    1.0000 </r>
       <r>    2.1785    1.0000 </r>
       <r>    2.8463    1.0003 </r>
       <r>    2.8464    1.0003 </r>
       <r>    9.9595    0.0000 </r>
       <r>   12.6359    0.0000 </r>
       <r>   13.3056    0.0000 </r>
       <r>   13.8428    0.0000 </r>
       <r>   13.8434    0.0000 </r>
       <r>   14.7648    0.0000 </r>
       <r>   14.9973    0.0000 </r>
       <r>   15.8175    0.0000 </r>
      </set>
      <set comment="kpoint 4">
       <r>  -13.3718    1.0000 </r>
       <r>  -12.7531    1.0000 </r>
       <r>  -12.7529    1.0000 </r>
       <r>  -12.5281    1.0000 </r>
       <r>   -0.3209    1.0000 </r>
       <r>   -0.3209    1.0000 </r>
       <r>   -0.0077    1.0000 </r>
       <r>    0.1507    1.0000 </r>
       <r>    0.6030    1.0000 </r>
       <r>    1.3740    1.0000 </r>
       <r>    1.3744    1.0000 </r>
       <r>    2.2133    1.0000 </r>
       <r>    2.2136    1.0000 </r>
       <r>    2.2277    1.0000 </r>
       <r>    2.2960    1.0000 </r>
       <r>    2.9182    1.0018 </r>
       <r>   11.0181    0.0000 </r>
       <r>   13.3450    0.0000 </r>
       <r>   13.3452    0.0000 </r>
       <r>   13.6116    0.0000 </r>
       <r>   14.3723    0.0000 </r>
       <r>   14.3725    0.0000 </r>
       <r>   15.5182    0.0000 </r>
       <r>   15.5427    0.0000 </r>
      </set>
      <set comment="kpoint 5">
       <r>  -13.3732    1.0000 </r>
       <r>  -12.7510    1.0000 </r>
       <r>  -12.7510    1.0000 </r>
       <r>  -12.5301    1.0000 </r>
       <r>   -0.3211    1.0000 </r>
       <r>   -0.3211    1.0000 </r>
       <r>   -0.0114    1.0000 </r>
       <r>    0.1488    1.0000 </r>
       <r>    0.6012    1.0000 </r>
       <r>    1.3764    1.0000 </r>
       <r>    1.3765    1.0000 </r>
       <r>    2.2086    1.0000 </r>
       <r>    2.2086    1.0000 </r>
       <r>    2.2376    1.0000 </r>
       <r>    2.2926    1.0000 </r>
       <r>    2.9277    1.0022 </r>
       <r>   11.0205    0.0000 </r>
       <r>   13.3440    0.0000 </r>
       <r>   13.3440    0.0000 </r>
       <r>   13.6219    0.0000 </r>
       <r>   14.3699    0.0000 </r>
       <r>   14.3699    0.0000 </r>
       <r>   15.5150    0.0000 </r>
       <r>   15.5448    0.0000 </r>
      </set>
      <set comment="kpoint 6">
       <r>  -13.1333    1.0000 </r>
       <r>  -12.7029    1.0000 </r>
       <r>  -12.6990    1.0000 </r>
       <r>  -12.6990    1.0000 </r>
       <r>   -0.9612    1.0000 </r>
       <r>   -0.9544    1.0000 </r>
       <r>   -0.9544    1.0000 </r>
       <r>   -0.4570    1.0000 </r>
       <r>    1.7851    1.0000 </r>
       <r>    1.7851    1.0000 </r>
       <r>    1.7883    1.0000 </r>
       <r>    2.3879    1.0000 </r>
       <r>    2.3879    1.0000 </r>
       <r>    2.3989    1.0000 </r>
       <r>    2.7289    1.0000 </r>
       <r>    2.7371    1.0000 </r>
       <r>   10.9872    0.0000 </r>
       <r>   12.2971    0.0000 </r>
       <r>   12.2971    0.0000 </r>
       <r>   12.3126    0.0000 </r>
       <r>   15.5379    0.0000 </r>
       <r>   15.5598    0.0000 </r>
       <r>   15.5598    0.0000 </r>
       <r>   15.6462    0.0000 </r>
      </set>
      <set comment="kpoint 7">
       <r>  -13.3703    1.0000 </r>
       <r>  -12.7551    1.0000 </r>
       <r>  -12.7551    1.0000 </r>
       <r>  -12.5260    1.0000 </r>
       <r>   -0.3208    1.0000 </r>
       <r>   -0.3208    1.0000 </r>
       <r>   -0.0040    1.0000 </r>
       <r>    0.1525    1.0000 </r>
       <r>    0.6048    1.0000 </r>
       <r>    1.3715    1.0000 </r>
       <r>    1.3715    1.0000 </r>
       <r>    2.2179    1.0000 </r>
       <r>    2.2180    1.0000 </r>
       <r>    2.2180    1.0000 </r>
       <r>    2.2982    1.0000 </r>
       <r>    2.9102    1.0015 </r>
       <r>   11.0158    0.0000 </r>
       <r>   13.3463    0.0000 </r>
       <r>   13.3463    0.0000 </r>
       <r>   13.6011    0.0000 </r>
       <r>   14.3746    0.0000 </r>
       <r>   14.3746    0.0000 </r>
       <r>   15.5201    0.0000 </r>
       <r>   15.5409    0.0000 </r>
      </set>
      <set comment="kpoint 8">
       <r>  -13.1298    1.0000 </r>
       <r>  -12.7030    1.0000 </r>
       <r>  -12.7030    1.0000 </r>
       <r>  -12.6991    1.0000 </r>
       <r>   -0.9592    1.0000 </r>
       <r>   -0.9592    1.0000 </r>
       <r>   -0.9524    1.0000 </r>
       <r>   -0.4489    1.0000 </r>
       <r>    1.7891    1.0000 </r>
       <r>    1.7923    1.0000 </r>
       <r>    1.7923    1.0000 </r>
       <r>    2.3804    1.0000 </r>
       <r>    2.3913    1.0000 </r>
       <r>    2.3913    1.0000 </r>
       <r>    2.7211    1.0000 </r>
       <r>    2.7293    1.0000 </r>
       <r>   10.9789    0.0000 </r>
       <r>   12.2946    0.0000 </r>
       <r>   12.3102    0.0000 </r>
       <r>   12.3102    0.0000 </r>
       <r>   15.5438    0.0000 </r>
       <r>   15.5438    0.0000 </r>
       <r>   15.5658    0.0000 </r>
       <r>   15.6633    0.0000 </r>
      </set>
     </set>
    </set>
   </array>
  </eigenvalues>
  <separator name="orbital magnetization" >
   <v name="MAGDIPOLOUT">      0.00000000      0.00000000      0.00000000</v>
  </separator>
  <dos>
   <i name="efermi">      3.39817704 </i>
   <total>
    <array>
     <dimension dim="1">gridpoints</dimension>
     <dimension dim="2">spin</dimension>
     <field>energy</field>
     <field>total</field>
     <field>integrated</field>
     <set>
      <set comment="spin 1">
       <r>   -16.0621     0.0000     0.0000 </r>
       <r>   -15.9470     0.0000     0.0000 </r>
       <r>   -15.8320     0.0000     0.0000 </r>
       <r>   -15.7169    -0.0000    -0.0000 </r>
       <r>   -15.6019    -0.0000    -0.0000 </r>
       <r>   -15.4869    -0.0000    -0.0000 </r>
       <r>   -15.3718    -0.0000    -0.0000 </r>
       <r>   -15.2568    -0.0000    -0.0000 </r>
       <r>   -15.1417    -0.0000    -0.0000 </r>
       <r>   -15.0267    -0.0000    -0.0000 </r>
       <r>   -14.9117    -0.0000    -0.0000 </r>
       <r>   -14.7966    -0.0000    -0.0000 </r>
       <r>   -14.6816    -0.0000    -0.0000 </r>
       <r>   -14.5665    -0.0006    -0.0001 </r>
       <r>   -14.4515    -0.0054    -0.0007 </r>
       <r>   -14.3365    -0.0151    -0.0024 </r>
       <r>   -14.2214     0.0261     0.0006 </r>
       <r>   -14.1064     0.1769     0.0209 </r>
       <r>   -13.9913     0.2160     0.0458 </r>
       <r>   -13.8763     0.1785     0.0663 </r>
       <r>   -13.7613     0.8281     0.1616 </r>
       <r>   -13.6462     1.5817     0.3435 </r>
       <r>   -13.5312     1.5071     0.5169 </r>
       <r>   -13.4161     2.4310     0.7966 </r>
       <r>   -13.3011     3.5973     1.2104 </r>
       <r>   -13.1861     3.0604     1.5625 </r>
       <r>   -13.0710     2.1350     1.8081 </r>
       <r>   -12.9560     1.8476     2.0206 </r>
       <r>   -12.8409     5.7362     2.6805 </r>
       <r>   -12.7259    13.1018     4.1877 </r>
       <r>   -12.6109    14.6098     5.8685 </r>
       <r>   -12.4958    10.7033     7.0998 </r>
       <r>   -12.3808     6.4744     7.8446 </r>
       <r>   -12.2657     1.9378     8.0675 </r>
       <r>   -12.1507    -0.2604     8.0375 </r>
       <r>   -12.0357    -0.2688     8.0066 </r>
       <r>   -11.9206    -0.0530     8.0005 </r>
       <r>   -11.8056    -0.0044     8.0000 </r>
       <r>   -11.6905    -0.0002     8.0000 </r>
       <r>   -11.5755    -0.0000     8.0000 </r>
       <r>   -11.4605    -0.0000     8.0000 </r>
       <r>   -11.3454    -0.0000     8.0000 </r>
       <r>   -11.2304    -0.0000     8.0000 </r>
       <r>   -11.1153     0.0000     8.0000 </r>
       <r>   -11.0003     0.0000     8.0000 </r>
       <r>   -10.8853     0.0000     8.0000 </r>
       <r>   -10.7702     0.0000     8.0000 </r>
       <r>   -10.6552     0.0000     8.0000 </r>
       <r>   -10.5401     0.0000     8.0000 </r>
       <r>   -10.4251     0.0000     8.0000 </r>
       <r>   -10.3101     0.0000     8.0000 </r>
       <r>   -10.1950     0.0000     8.0000 </r>
       <r>   -10.0800     0.0000     8.0000 </r>
       <r>    -9.9649     0.0000     8.0000 </r>
       <r>    -9.8499     0.0000     8.0000 </r>
       <r>    -9.7349     0.0000     8.0000 </r>
       <r>    -9.6198     0.0000     8.0000 </r>
       <r>    -9.5048     0.0000     8.0000 </r>
       <r>    -9.3897     0.0000     8.0000 </r>
       <r>    -9.2747     0.0000     8.0000 </r>
       <r>    -9.1597     0.0000     8.0000 </r>
       <r>    -9.0446     0.0000     8.0000 </r>
       <r>    -8.9296     0.0000     8.0000 </r>
       <r>    -8.8145     0.0000     8.0000 </r>
       <r>    -8.6995     0.0000     8.0000 </r>
       <r>    -8.5845     0.0000     8.0000 </r>
       <r>    -8.4694     0.0000     8.0000 </r>
       <r>    -8.3544     0.0000     8.0000 </r>
       <r>    -8.2393     0.0000     8.0000 </r>
       <r>    -8.1243     0.0000     8.0000 </r>
       <r>    -8.0093     0.0000     8.0000 </r>
       <r>    -7.8942     0.0000     8.0000 </r>
       <r>    -7.7792     0.0000     8.0000 </r>
       <r>    -7.6641     0.0000     8.0000 </r>
       <r>    -7.5491     0.0000     8.0000 </r>
       <r>    -7.4341     0.0000     8.0000 </r>
       <r>    -7.3190     0.0000     8.0000 </r>
       <r>    -7.2040     0.0000     8.0000 </r>
       <r>    -7.0889     0.0000     8.0000 </r>
       <r>    -6.9739     0.0000     8.0000 </r>
       <r>    -6.8589     0.0000     8.0000 </r>
       <r>    -6.7438     0.0000     8.0000 </r>
       <r>    -6.6288     0.0000     8.0000 </r>
       <r>    -6.5137     0.0000     8.0000 </r>
       <r>    -6.3987     0.0000     8.0000 </r>
       <r>    -6.2837     0.0000     8.0000 </r>
       <r>    -6.1686     0.0000     8.0000 </r>
       <r>    -6.0536     0.0000     8.0000 </r>
       <r>    -5.9385     0.0000     8.0000 </r>
       <r>    -5.8235     0.0000     8.0000 </r>
       <r>    -5.7085     0.0000     8.0000 </r>
       <r>    -5.5934     0.0000     8.0000 </r>
       <r>    -5.4784     0.0000     8.0000 </r>
       <r>    -5.3633     0.0000     8.0000 </r>
       <r>    -5.2483     0.0000     8.0000 </r>
       <r>    -5.1333     0.0000     8.0000 </r>
       <r>    -5.0182     0.0000     8.0000 </r>
       <r>    -4.9032     0.0000     8.0000 </r>
       <r>    -4.7881     0.0000     8.0000 </r>
       <r>    -4.6731     0.0000     8.0000 </r>
       <r>    -4.5581     0.0000     8.0000 </r>
       <r>    -4.4430     0.0000     8.0000 </r>
       <r>    -4.3280     0.0000     8.0000 </r>
       <r>    -4.2129     0.0000     8.0000 </r>
       <r>    -4.0979     0.0000     8.0000 </r>
       <r>    -3.9829     0.0000     8.0000 </r>
       <r>    -3.8678     0.0000     8.0000 </r>
       <r>    -3.7528     0.0000     8.0000 </r>
       <r>    -3.6377     0.0000     8.0000 </r>
       <r>    -3.5227     0.0000     8.0000 </r>
       <r>    -3.4077     0.0000     8.0000 </r>
       <r>    -3.2926     0.0000     8.0000 </r>
       <r>    -3.1776     0.0000     8.0000 </r>
       <r>    -3.0625     0.0000     8.0000 </r>
       <r>    -2.9475     0.0000     8.0000 </r>
       <r>    -2.8325     0.0000     8.0000 </r>
       <r>    -2.7174     0.0000     8.0000 </r>
       <r>    -2.6024    -0.0000     8.0000 </r>
       <r>    -2.4873    -0.0000     8.0000 </r>
       <r>    -2.3723    -0.0000     8.0000 </r>
       <r>    -2.2573    -0.0000     8.0000 </r>
       <r>    -2.1422    -0.0000     8.0000 </r>
       <r>    -2.0272    -0.0000     8.0000 </r>
       <r>    -1.9121    -0.0000     8.0000 </r>
       <r>    -1.7971    -0.0000     8.0000 </r>
       <r>    -1.6821    -0.0000     8.0000 </r>
       <r>    -1.5670    -0.0011     7.9999 </r>
       <r>    -1.4520    -0.0192     7.9977 </r>
       <r>    -1.3369    -0.1530     7.9801 </r>
       <r>    -1.2219    -0.3869     7.9356 </r>
       <r>    -1.1069     0.8627     8.0348 </r>
       <r>    -0.9918     5.3466     8.6499 </r>
       <r>    -0.8768     7.8005     9.5472 </r>
       <r>    -0.7617     3.8605     9.9913 </r>
       <r>    -0.6467    -0.1454     9.9746 </r>
       <r>    -0.5317     0.6524    10.0497 </r>
       <r>    -0.4166     6.6984    10.8202 </r>
       <r>    -0.3016    12.6287    12.2730 </r>
       <r>    -0.1865    10.1056    13.4356 </r>
       <r>    -0.0715     4.7063    13.9770 </r>
       <r>     0.0435     4.3796    14.4808 </r>
       <r>     0.1586     5.1256    15.0705 </r>
       <r>     0.2736     3.0935    15.4264 </r>
       <r>     0.3887     0.5766    15.4927 </r>
       <r>     0.5037     1.0359    15.6119 </r>
       <r>     0.6187     3.1521    15.9745 </r>
       <r>     0.7338     2.7258    16.2881 </r>
       <r>     0.8488     1.4133    16.4506 </r>
       <r>     0.9639     2.6394    16.7543 </r>
       <r>     1.0789     2.9151    17.0896 </r>
       <r>     1.1939     1.4147    17.2524 </r>
       <r>     1.3090     3.5538    17.6612 </r>
       <r>     1.4240     7.4748    18.5211 </r>
       <r>     1.5390     7.5068    19.3847 </r>
       <r>     1.6541     6.8011    20.1671 </r>
       <r>     1.7691     8.5536    21.1511 </r>
       <r>     1.8842     8.0306    22.0749 </r>
       <r>     1.9992     3.5496    22.4833 </r>
       <r>     2.1142     5.4964    23.1156 </r>
       <r>     2.2293    15.6747    24.9188 </r>
       <r>     2.3443    19.2453    27.1328 </r>
       <r>     2.4594    11.7304    28.4822 </r>
       <r>     2.5744     3.5764    28.8937 </r>
       <r>     2.6894     3.1751    29.2589 </r>
       <r>     2.8045     7.6851    30.1430 </r>
       <r>     2.9195     8.9017    31.1671 </r>
       <r>     3.0346     4.9780    31.7397 </r>
       <r>     3.1496     1.1872    31.8763 </r>
       <r>     3.2646     0.5178    31.9359 </r>
       <r>     3.3797     0.5132    31.9949 </r>
       <r>     3.4947     0.1129    32.0079 </r>
       <r>     3.6098    -0.0453    32.0027 </r>
       <r>     3.7248    -0.0205    32.0003 </r>
       <r>     3.8398    -0.0028    32.0000 </r>
       <r>     3.9549    -0.0002    32.0000 </r>
       <r>     4.0699    -0.0000    32.0000 </r>
       <r>     4.1850    -0.0000    32.0000 </r>
       <r>     4.3000    -0.0000    32.0000 </r>
       <r>     4.4150    -0.0000    32.0000 </r>
       <r>     4.5301    -0.0000    32.0000 </r>
       <r>     4.6451     0.0000    32.0000 </r>
       <r>     4.7602     0.0000    32.0000 </r>
       <r>     4.8752     0.0000    32.0000 </r>
       <r>     4.9902     0.0000    32.0000 </r>
       <r>     5.1053     0.0000    32.0000 </r>
       <r>     5.2203     0.0000    32.0000 </r>
       <r>     5.3354     0.0000    32.0000 </r>
       <r>     5.4504     0.0000    32.0000 </r>
       <r>     5.5654     0.0000    32.0000 </r>
       <r>     5.6805     0.0000    32.0000 </r>
       <r>     5.7955     0.0000    32.0000 </r>
       <r>     5.9106     0.0000    32.0000 </r>
       <r>     6.0256     0.0000    32.0000 </r>
       <r>     6.1406     0.0000    32.0000 </r>
       <r>     6.2557     0.0000    32.0000 </r>
       <r>     6.3707    -0.0000    32.0000 </r>
       <r>     6.4858    -0.0000    32.0000 </r>
       <r>     6.6008    -0.0000    32.0000 </r>
       <r>     6.7158    -0.0000    32.0000 </r>
       <r>     6.8309    -0.0000    32.0000 </r>
       <r>     6.9459    -0.0000    32.0000 </r>
       <r>     7.0610    -0.0000    32.0000 </r>
       <r>     7.1760    -0.0000    32.0000 </r>
       <r>     7.2910    -0.0000    32.0000 </r>
       <r>     7.4061    -0.0000    32.0000 </r>
       <r>     7.5211    -0.0003    32.0000 </r>
       <r>     7.6362    -0.0035    31.9996 </r>
       <r>     7.7512    -0.0136    31.9980 </r>
       <r>     7.8662     0.0061    31.9987 </r>
       <r>     7.9813     0.1489    32.0158 </r>
       <r>     8.0963     0.2968    32.0500 </r>
       <r>     8.2114     0.2009    32.0731 </r>
       <r>     8.3264     0.0299    32.0765 </r>
       <r>     8.4414    -0.0150    32.0748 </r>
       <r>     8.5565    -0.0056    32.0742 </r>
       <r>     8.6715    -0.0007    32.0741 </r>
       <r>     8.7866    -0.0000    32.0741 </r>
       <r>     8.9016    -0.0000    32.0741 </r>
       <r>     9.0166    -0.0000    32.0741 </r>
       <r>     9.1317    -0.0000    32.0741 </r>
       <r>     9.2467    -0.0000    32.0741 </r>
       <r>     9.3618    -0.0004    32.0740 </r>
       <r>     9.4768    -0.0061    32.0733 </r>
       <r>     9.5918    -0.0437    32.0683 </r>
       <r>     9.7069    -0.0859    32.0584 </r>
       <r>     9.8219     0.3078    32.0938 </r>
       <r>     9.9370     1.3942    32.2542 </r>
       <r>    10.0520     1.7135    32.4513 </r>
       <r>    10.1670     0.6946    32.5312 </r>
       <r>    10.2821    -0.0237    32.5285 </r>
       <r>    10.3971    -0.0718    32.5202 </r>
       <r>    10.5122    -0.0327    32.5165 </r>
       <r>    10.6272    -0.1322    32.5013 </r>
       <r>    10.7422    -0.2832    32.4687 </r>
       <r>    10.8573     0.8507    32.5666 </r>
       <r>    10.9723     4.3341    33.0652 </r>
       <r>    11.0874     5.7733    33.7293 </r>
       <r>    11.2024     2.6351    34.0325 </r>
       <r>    11.3174     0.0346    34.0364 </r>
       <r>    11.4325    -0.2509    34.0076 </r>
       <r>    11.5475    -0.0600    34.0007 </r>
       <r>    11.6626    -0.0060    34.0000 </r>
       <r>    11.7776    -0.0099    33.9988 </r>
       <r>    11.8926    -0.0962    33.9878 </r>
       <r>    12.0077    -0.3559    33.9468 </r>
       <r>    12.1227     0.2128    33.9713 </r>
       <r>    12.2378     3.9443    34.4251 </r>
       <r>    12.3528     7.7100    35.3120 </r>
       <r>    12.4678     5.5416    35.9495 </r>
       <r>    12.5829     2.0746    36.1882 </r>
       <r>    12.6979     1.4428    36.3542 </r>
       <r>    12.8130     0.8275    36.4494 </r>
       <r>    12.9280    -0.0842    36.4397 </r>
       <r>    13.0430    -0.5508    36.3763 </r>
       <r>    13.1581     0.4514    36.4282 </r>
       <r>    13.2731     5.4005    37.0495 </r>
       <r>    13.3882     9.6379    38.1583 </r>
       <r>    13.5032     6.9828    38.9616 </r>
       <r>    13.6182     3.8440    39.4038 </r>
       <r>    13.7333     3.6403    39.8225 </r>
       <r>    13.8483     3.9219    40.2737 </r>
       <r>    13.9634     2.8196    40.5981 </r>
       <r>    14.0784     0.4377    40.6484 </r>
       <r>    14.1934     0.1242    40.6627 </r>
       <r>    14.3085     3.8188    41.1020 </r>
       <r>    14.4235     7.0993    41.9187 </r>
       <r>    14.5386     4.3936    42.4242 </r>
       <r>    14.6536     1.0078    42.5401 </r>
       <r>    14.7686     1.2066    42.6789 </r>
       <r>    14.8837     1.7579    42.8812 </r>
       <r>    14.9987     1.4590    43.0490 </r>
       <r>    15.1138     0.8319    43.1447 </r>
       <r>    15.2288    -0.0897    43.1344 </r>
       <r>    15.3438     0.5228    43.1945 </r>
       <r>    15.4589     6.7435    43.9703 </r>
       <r>    15.5739    14.9762    45.6932 </r>
       <r>    15.6890    13.0246    47.1915 </r>
       <r>    15.8040     5.1432    47.7832 </r>
       <r>    15.9190     1.2832    47.9308 </r>
       <r>    16.0341     0.1772    47.9512 </r>
       <r>    16.1491    -0.1490    47.9340 </r>
       <r>    16.2642    -0.0669    47.9263 </r>
       <r>    16.3792     0.1394    47.9424 </r>
       <r>    16.4942     0.2965    47.9765 </r>
       <r>    16.6093     0.1974    47.9992 </r>
       <r>    16.7243     0.0280    48.0024 </r>
       <r>    16.8394    -0.0150    48.0007 </r>
       <r>    16.9544    -0.0054    48.0001 </r>
       <r>    17.0694    -0.0006    48.0000 </r>
       <r>    17.1845    -0.0000    48.0000 </r>
       <r>    17.2995    -0.0000    48.0000 </r>
       <r>    17.4146    -0.0000    48.0000 </r>
       <r>    17.5296    -0.0000    48.0000 </r>
       <r>    17.6446    -0.0000    48.0000 </r>
       <r>    17.7597    -0.0000    48.0000 </r>
       <r>    17.8747     0.0000    48.0000 </r>
       <r>    17.9898     0.0000    48.0000 </r>
       <r>    18.1048     0.0000    48.0000 </r>
       <r>    18.2198     0.0000    48.0000 </r>
       <r>    18.3349     0.0000    48.0000 </r>
       <r>    18.4499     0.0000    48.0000 </r>
      </set>
     </set>
    </array>
   </total>
  </dos>
 </calculation>
 <structure name="finalpos" >
  <crystal>
   <varray name="basis" >
    <v>       4.20047253       0.00000000       0.00000000 </v>
    <v>       0.00000000       4.20047253       0.00840095 </v>
    <v>       0.00000000       0.00000000       4.20047253 </v>
   </varray>
   <i name="volume">     74.11300886 </i>
   <varray name="rec_basis" >
    <v>       0.23806845       0.00000000       0.00000000 </v>
    <v>       0.00000000       0.23806845       0.00000000 </v>
    <v>       0.00000000      -0.00047614       0.23806845 </v>
   </varray>
  </crystal>
  <varray name="positions" >
   <v>       0.00000000       0.00000000       0.00000000 </v>
   <v>       0.00000000       0.50000000       0.50000000 </v>
   <v>       0.50000000       0.00000000       0.50000000 </v>
   <v>       0.50000000       0.50000000       0.00000000 </v>
   <v>       0.50000000       0.50000000       0.50000000 </v>
   <v>       0.50000000       0.00000000       0.00000000 </v>
   <v>       0.00000000       0.50000000       0.00000000 </v>
   <v>       0.00000000       0.00000000       0.50000000 </v>
  </varray>
 </structure>
</modeling>
