<?xml version="1.0" encoding="ISO-8859-1"?>
<modeling>
 <generator>
  <i name="program" type="string">vasp </i>
  <i name="version" type="string">5.4.1  </i>
  <i name="subversion" type="string">24Jun15 (build Oct  9 2015 14:58:31) complex                          parallel </i>
  <i name="platform" type="string">IFC91_ompi </i>
  <i name="date" type="string">2017 09 13 </i>
  <i name="time" type="string">10:58:56 </i>
 </generator>
 <incar>
  <i type="string" name="PREC">accurate</i>
  <i type="string" name="ALGO"> Fast</i>
  <i type="int" name="IBRION">     2</i>
  <i name="EDIFF">      0.00000001</i>
  <i type="int" name="NSW">    30</i>
  <i type="int" name="ISIF">     2</i>
  <i type="string" name="LREAL"> A</i>
  <i type="logical" name="LWAVE"> F  </i>
  <i type="logical" name="LCHARG"> F  </i>
  <v type="int" name="KPOINT_BSE">    -1     0     0     0</v>
  <i type="string" name="GGA"> PE</i>
 </incar>
 <kpoints>
  <generation param="Monkhorst-Pack">
   <v type="int" name="divisions">       3        3        3 </v>
   <v name="usershift">      0.00000000       0.00000000       0.00000000 </v>
   <v name="genvec1">      0.33333333       0.00000000       0.00000000 </v>
   <v name="genvec2">      0.00000000       0.33333333       0.00000000 </v>
   <v name="genvec3">      0.00000000       0.00000000       0.33333333 </v>
   <v name="shift">      0.00000000       0.00000000       0.00000000 </v>
  </generation>
  <varray name="kpointlist" >
   <v>       0.00000000       0.00000000       0.00000000 </v>
   <v>       0.33333333       0.00000000       0.00000000 </v>
   <v>       0.00000000       0.33333333       0.00000000 </v>
   <v>       0.33333333       0.33333333       0.00000000 </v>
   <v>       0.00000000       0.33333333       0.33333333 </v>
   <v>       0.33333333       0.33333333       0.33333333 </v>
  </varray>
  <varray name="weights" >
   <v>       0.03703704 </v>
   <v>       0.07407407 </v>
   <v>       0.14814815 </v>
   <v>       0.29629630 </v>
   <v>       0.14814815 </v>
   <v>       0.29629630 </v>
  </varray>
 </kpoints>
 <parameters>
  <separator name="general" >
   <i type="string" name="SYSTEM">unknown system</i>
   <i type="logical" name="LCOMPAT"> F  </i>
  </separator>
  <separator name="electronic" >
   <i type="string" name="PREC">accura</i>
   <i name="ENMAX">    400.00000000</i>
   <i name="ENAUG">    605.39200000</i>
   <i name="EDIFF">      0.00000001</i>
   <i type="int" name="IALGO">    68</i>
   <i type="int" name="IWAVPR">    11</i>
   <i type="int" name="NBANDS">    24</i>
   <i name="NELECT">     32.00000000</i>
   <i type="int" name="TURBO">     0</i>
   <i type="int" name="IRESTART">     0</i>
   <i type="int" name="NREBOOT">     0</i>
   <i type="int" name="NMIN">     0</i>
   <i name="EREF">      0.00000000</i>
   <separator name="electronic smearing" >
    <i type="int" name="ISMEAR">     1</i>
    <i name="SIGMA">      0.20000000</i>
    <i name="KSPACING">      0.50000000</i>
    <i type="logical" name="KGAMMA"> T  </i>
   </separator>
   <separator name="electronic projectors" >
    <i type="logical" name="LREAL"> T  </i>
    <v name="ROPT">     -0.00025000     -0.00025000</v>
    <i type="int" name="LMAXPAW">  -100</i>
    <i type="int" name="LMAXMIX">     2</i>
    <i type="logical" name="NLSPLINE"> F  </i>
   </separator>
   <separator name="electronic startup" >
    <i type="int" name="ISTART">     0</i>
    <i type="int" name="ICHARG">     2</i>
    <i type="int" name="INIWAV">     1</i>
   </separator>
   <separator name="electronic spin" >
    <i type="int" name="ISPIN">     1</i>
    <i type="logical" name="LNONCOLLINEAR"> F  </i>
    <v name="MAGMOM">      1.00000000      1.00000000      1.00000000      1.00000000      1.00000000      1.00000000      1.00000000      1.00000000</v>
    <i name="NUPDOWN">     -1.00000000</i>
    <i type="logical" name="LSORBIT"> F  </i>
    <v name="SAXIS">      0.00000000      0.00000000      1.00000000</v>
    <i type="logical" name="LSPIRAL"> F  </i>
    <v name="QSPIRAL">      0.00000000      0.00000000      0.00000000</v>
    <i type="logical" name="LZEROZ"> F  </i>
   </separator>
   <separator name="electronic exchange-correlation" >
    <i type="logical" name="LASPH"> F  </i>
    <i type="logical" name="LMETAGGA"> F  </i>
   </separator>
   <separator name="electronic convergence" >
    <i type="int" name="NELM">    60</i>
    <i type="int" name="NELMDL">    -5</i>
    <i type="int" name="NELMIN">     2</i>
    <i name="ENINI">    400.00000000</i>
    <separator name="electronic convergence detail" >
     <i type="logical" name="LDIAG"> T  </i>
     <i type="logical" name="LSUBROT"> F  </i>
     <i name="WEIMIN">      0.00100000</i>
     <i name="EBREAK">      0.00000000</i>
     <i name="DEPER">      0.30000000</i>
     <i type="int" name="NRMM">     4</i>
     <i name="TIME">      0.40000000</i>
    </separator>
   </separator>
   <separator name="electronic mixer" >
    <i name="AMIX">      0.40000000</i>
    <i name="BMIX">      1.00000000</i>
    <i name="AMIN">      0.10000000</i>
    <i name="AMIX_MAG">      1.60000000</i>
    <i name="BMIX_MAG">      1.00000000</i>
    <separator name="electronic mixer details" >
     <i type="int" name="IMIX">     4</i>
     <i type="logical" name="MIXFIRST"> F  </i>
     <i type="int" name="MAXMIX">   -45</i>
     <i name="WC">    100.00000000</i>
     <i type="int" name="INIMIX">     1</i>
     <i type="int" name="MIXPRE">     1</i>
     <i type="int" name="MREMOVE">     5</i>
    </separator>
   </separator>
   <separator name="electronic dipolcorrection" >
    <i type="logical" name="LDIPOL"> F  </i>
    <i type="logical" name="LMONO"> F  </i>
    <i type="int" name="IDIPOL">     0</i>
    <i name="EPSILON">      1.00000000</i>
    <v name="DIPOL">   -100.00000000   -100.00000000   -100.00000000</v>
    <i name="EFIELD">      0.00000000</i>
   </separator>
  </separator>
  <separator name="grids" >
   <i type="int" name="NGX">    28</i>
   <i type="int" name="NGY">    28</i>
   <i type="int" name="NGZ">    28</i>
   <i type="int" name="NGXF">    56</i>
   <i type="int" name="NGYF">    56</i>
   <i type="int" name="NGZF">    56</i>
   <i type="logical" name="ADDGRID"> F  </i>
  </separator>
  <separator name="ionic" >
   <i type="int" name="NSW">    30</i>
   <i type="int" name="IBRION">     2</i>
   <i type="int" name="ISIF">     2</i>
   <i name="PSTRESS">      0.00000000</i>
   <i name="EDIFFG">      0.00000010</i>
   <i type="int" name="NFREE">     1</i>
   <i name="POTIM">      0.50000000</i>
   <i name="SMASS">     -3.00000000</i>
   <i name="SCALEE">      1.00000000</i>
  </separator>
  <separator name="ionic md" >
   <i name="TEBEG">      0.00010000</i>
   <i name="TEEND">      0.00010000</i>
   <i type="int" name="NBLOCK">     1</i>
   <i type="int" name="KBLOCK">    30</i>
   <i type="int" name="NPACO">   256</i>
   <i name="APACO">     16.00000000</i>
  </separator>
  <separator name="symmetry" >
   <i type="int" name="ISYM">     2</i>
   <i name="SYMPREC">      0.00001000</i>
  </separator>
  <separator name="dos" >
   <i type="logical" name="LORBIT"> T  </i>
   <v name="RWIGS">     -1.00000000     -1.00000000</v>
   <i type="int" name="NEDOS">   301</i>
   <i name="EMIN">     10.00000000</i>
   <i name="EMAX">    -10.00000000</i>
   <i name="EFERMI">      0.00000000</i>
  </separator>
  <separator name="writing" >
   <i type="int" name="NWRITE">     2</i>
   <i type="logical" name="LWAVE"> F  </i>
   <i type="logical" name="LCHARG"> F  </i>
   <i type="logical" name="LPARD"> F  </i>
   <i type="logical" name="LVTOT"> F  </i>
   <i type="logical" name="LVHAR"> F  </i>
   <i type="logical" name="LELF"> F  </i>
   <i type="logical" name="LOPTICS"> F  </i>
   <v name="STM">      0.00000000      0.00000000      0.00000000      0.00000000      0.00000000      0.00000000      0.00000000</v>
  </separator>
  <separator name="performance" >
   <i type="int" name="NPAR">     4</i>
   <i type="int" name="NSIM">     4</i>
   <i type="int" name="NBLK">    -1</i>
   <i type="logical" name="LPLANE"> T  </i>
   <i type="logical" name="LSCALAPACK"> T  </i>
   <i type="logical" name="LSCAAWARE"> F  </i>
   <i type="logical" name="LSCALU"> F  </i>
   <i type="logical" name="LASYNC"> F  </i>
   <i type="logical" name="LORBITALREAL"> F  </i>
  </separator>
  <separator name="miscellaneous" >
   <i type="int" name="IDIOT">     3</i>
   <i type="logical" name="LMUSIC"> F  </i>
   <v name="POMASS">     24.30500000     16.00000000</v>
   <v name="DARWINR">      0.00000000      0.00000000</v>
   <v name="DARWINV">      1.00000000      1.00000000</v>
   <i type="logical" name="LCORR"> T  </i>
  </separator>
  <i type="logical" name="GGA_COMPAT"> T  </i>
  <i type="logical" name="LBERRY"> F  </i>
  <i type="int" name="ICORELEVEL">     0</i>
  <i type="logical" name="LDAU"> F  </i>
  <i type="int" name="I_CONSTRAINED_M">     0</i>
  <separator name="electronic exchange-correlation" >
   <i type="string" name="GGA">PE</i>
   <i type="int" name="VOSKOWN">     0</i>
   <i type="logical" name="LHFCALC"> F  </i>
   <i type="string" name="PRECFOCK"></i>
   <i type="logical" name="LSYMGRAD"> F  </i>
   <i type="logical" name="LHFONE"> F  </i>
   <i type="logical" name="LRHFCALC"> F  </i>
   <i type="logical" name="LTHOMAS"> F  </i>
   <i type="logical" name="LMODELHF"> F  </i>
   <i name="ENCUT4O">     -1.00000000</i>
   <i type="int" name="EXXOEP">     0</i>
   <i type="int" name="FOURORBIT">     0</i>
   <i name="AEXX">      0.00000000</i>
   <i name="HFALPHA">      0.00000000</i>
   <i name="MCALPHA">      0.00000000</i>
   <i name="ALDAX">      1.00000000</i>
   <i name="AGGAX">      1.00000000</i>
   <i name="ALDAC">      1.00000000</i>
   <i name="AGGAC">      1.00000000</i>
   <i type="int" name="NKREDX">     1</i>
   <i type="int" name="NKREDY">     1</i>
   <i type="int" name="NKREDZ">     1</i>
   <i type="logical" name="SHIFTRED"> F  </i>
   <i type="logical" name="ODDONLY"> F  </i>
   <i type="logical" name="EVENONLY"> F  </i>
   <i type="int" name="LMAXFOCK">     0</i>
   <i type="int" name="NMAXFOCKAE">     0</i>
   <i type="logical" name="LFOCKAEDFT"> F  </i>
   <i name="HFSCREEN">      0.00000000</i>
   <i name="HFSCREENC">      0.00000000</i>
   <i type="int" name="NBANDSGWLOW">     0</i>
  </separator>
  <separator name="vdW DFT" >
   <i type="logical" name="LUSE_VDW"> F  </i>
   <i name="Zab_VDW">     -0.84910000</i>
   <i name="PARAM1">      0.12340000</i>
   <i name="PARAM2">      1.00000000</i>
   <i name="PARAM3">      0.00000000</i>
  </separator>
  <separator name="model GW" >
   <i type="int" name="MODEL_GW">     0</i>
   <i name="MODEL_EPS0">      5.61406042</i>
   <i name="MODEL_ALPHA">      1.00000000</i>
  </separator>
  <separator name="linear response parameters" >
   <i type="logical" name="LEPSILON"> F  </i>
   <i type="logical" name="LRPA"> F  </i>
   <i type="logical" name="LNABLA"> F  </i>
   <i type="logical" name="LVEL"> F  </i>
   <i type="int" name="KINTER">     0</i>
   <i name="CSHIFT">      0.10000000</i>
   <i name="OMEGAMAX">     -1.00000000</i>
   <i name="DEG_THRESHOLD">      0.00200000</i>
  </separator>
  <separator name="orbital magnetization" >
   <i type="logical" name="NUCIND"> F  </i>
   <v name="MAGPOS">      0.00000000      0.00000000      0.00000000</v>
   <i type="logical" name="LNICSALL"> T  </i>
   <i type="logical" name="ORBITALMAG"> F  </i>
   <i type="logical" name="LMAGBLOCH"> F  </i>
   <i type="logical" name="LCHIMAG"> F  </i>
   <i type="logical" name="LGAUGE"> T  </i>
   <i type="int" name="MAGATOM">     0</i>
   <v name="MAGDIPOL">      0.00000000      0.00000000      0.00000000</v>
   <v name="AVECCONST">      0.00000000      0.00000000      0.00000000</v>
  </separator>
  <separator name="response functions" >
   <i type="logical" name="LADDER"> F  </i>
   <i type="logical" name="LFXC"> F  </i>
   <i type="logical" name="LHARTREE"> T  </i>
   <i type="int" name="IBSE">     0</i>
   <v type="int" name="KPOINT">    -1     0     0     0</v>
   <i type="logical" name="LTCTE"> F  </i>
   <i type="logical" name="LTETE"> F  </i>
   <i type="logical" name="LTRIPLET"> F  </i>
   <i type="logical" name="LFXCEPS"> F  </i>
   <i type="logical" name="LFXHEG"> F  </i>
   <i type="int" name="NATURALO">     0</i>
   <i type="logical" name="L2ORDER"> F  </i>
   <i type="logical" name="LUSEW"> F  </i>
   <i name="ENCUTGW">     -2.00000000</i>
   <i name="ENCUTGWSOFT">     -2.00000000</i>
   <i name="ENCUTLF">     -1.00000000</i>
   <i type="int" name="LMAXMP2">    -1</i>
   <i name="SCISSOR">      0.00000000</i>
   <i type="int" name="NOMEGA">     0</i>
   <i type="int" name="NOMEGAR">     0</i>
   <i type="int" name="NBANDSGW">    -1</i>
   <i type="int" name="NBANDSO">    -1</i>
   <i type="int" name="NBANDSV">    -1</i>
   <i type="int" name="NELM">     1</i>
   <i type="int" name="NELMHF">     1</i>
   <i type="int" name="DIM">     3</i>
   <i type="int" name="ANTIRES">     0</i>
   <i name="OMEGAMAX">    -30.00000000</i>
   <i name="OMEGAMIN">    -30.00000000</i>
   <i name="OMEGATL">   -200.00000000</i>
   <i type="int" name="OMEGAGRID">     0</i>
   <i name="CSHIFT">     -0.10000000</i>
   <i type="logical" name="SELFENERGY"> F  </i>
   <i type="logical" name="LSPECTRAL"> F  </i>
   <i type="logical" name="LSPECTRALGW"> F  </i>
   <i type="logical" name="LSINGLES"> F  </i>
   <i type="logical" name="LFERMIGW"> F  </i>
   <i type="logical" name="ODDONLYGW"> F  </i>
   <i type="logical" name="EVENONLYGW"> F  </i>
   <i type="int" name="NKREDLFX">     1</i>
   <i type="int" name="NKREDLFY">     1</i>
   <i type="int" name="NKREDLFZ">     1</i>
   <i type="int" name="MAXMEM">  1800</i>
   <i type="int" name="TELESCOPE">     0</i>
   <i type="int" name="TAUPAR">     1</i>
   <i type="int" name="OMEGAPAR">    -1</i>
   <i name="LAMBDA">      1.00000000</i>
  </separator>
  <separator name="External order field" >
   <i name="OFIELD_KAPPA">      0.00000000</i>
   <v name="OFIELD_K">      0.00000000      0.00000000      0.00000000</v>
   <i name="OFIELD_Q6_NEAR">      0.00000000</i>
   <i name="OFIELD_Q6_FAR">      0.00000000</i>
   <i name="OFIELD_A">      0.00000000</i>
  </separator>
 </parameters>
 <atominfo>
  <atoms>       8 </atoms>
  <types>       2 </types>
  <array name="atoms" >
   <dimension dim="1">ion</dimension>
   <field type="string">element</field>
   <field type="int">atomtype</field>
   <set>
    <rc><c>Mg</c><c>   1</c></rc>
    <rc><c>Mg</c><c>   1</c></rc>
    <rc><c>Mg</c><c>   1</c></rc>
    <rc><c>Mg</c><c>   1</c></rc>
    <rc><c>O </c><c>   2</c></rc>
    <rc><c>O </c><c>   2</c></rc>
    <rc><c>O </c><c>   2</c></rc>
    <rc><c>O </c><c>   2</c></rc>
   </set>
  </array>
  <array name="atomtypes" >
   <dimension dim="1">type</dimension>
   <field type="int">atomspertype</field>
   <field type="string">element</field>
   <field>mass</field>
   <field>valence</field>
   <field type="string">pseudopotential</field>
   <set>
    <rc><c>   4</c><c>Mg</c><c>     24.30500000</c><c>      2.00000000</c><c>  PAW_PBE Mg 13Apr2007                  </c></rc>
    <rc><c>   4</c><c>O </c><c>     16.00000000</c><c>      6.00000000</c><c>  PAW_PBE O 08Apr2002                   </c></rc>
   </set>
  </array>
 </atominfo>
 <structure name="initialpos" >
  <crystal>
   <varray name="basis" >
    <v>       4.24247725       0.00000000       0.00000000 </v>
    <v>       0.00000000       4.20047253       0.00000000 </v>
    <v>       0.00000000       0.00000000       4.20047253 </v>
   </varray>
   <i name="volume">     74.85413894 </i>
   <varray name="rec_basis" >
    <v>       0.23571134       0.00000000       0.00000000 </v>
    <v>       0.00000000       0.23806845       0.00000000 </v>
    <v>       0.00000000       0.00000000       0.23806845 </v>
   </varray>
  </crystal>
  <varray name="positions" >
   <v>       0.00000000       0.00000000       0.00000000 </v>
   <v>       0.00000000       0.50000000       0.50000000 </v>
   <v>       0.50000000       0.00000000       0.50000000 </v>
   <v>       0.50000000       0.50000000       0.00000000 </v>
   <v>       0.50000000       0.50000000       0.50000000 </v>
   <v>       0.50000000       0.00000000       0.00000000 </v>
   <v>       0.00000000       0.50000000       0.00000000 </v>
   <v>       0.00000000       0.00000000       0.50000000 </v>
  </varray>
 </structure>
 <calculation>
  <scstep>
   <time name="dav">    0.53    0.53</time>
   <time name="total">    0.60    0.60</time>
   <energy>
    <i name="alphaZ">     78.08154967 </i>
    <i name="ewald">  -1431.92884002 </i>
    <i name="hartreedc">   -484.63481846 </i>
    <i name="XCdc">    -81.74631910 </i>
    <i name="pawpsdc">   1647.42468863 </i>
    <i name="pawaedc">  -1447.16842517 </i>
    <i name="eentropy">     -0.01700267 </i>
    <i name="bandstr">     17.99422322 </i>
    <i name="atom">   1821.19987801 </i>
    <i name="e_fr_energy">    119.20493412 </i>
    <i name="e_wo_entrp">    119.22193679 </i>
    <i name="e_0_energy">    119.21060168 </i>
   </energy>
  </scstep>
  <scstep>
   <time name="dav">    0.66    0.66</time>
   <time name="total">    0.66    0.66</time>
   <energy>
    <i name="e_fr_energy">    -46.59550773 </i>
    <i name="e_wo_entrp">    -46.59593733 </i>
    <i name="e_0_energy">    -46.59565093 </i>
   </energy>
  </scstep>
  <scstep>
   <time name="dav">    0.62    0.62</time>
   <time name="total">    0.62    0.63</time>
   <energy>
    <i name="e_fr_energy">    -53.77793240 </i>
    <i name="e_wo_entrp">    -53.78637292 </i>
    <i name="e_0_energy">    -53.78074591 </i>
   </energy>
  </scstep>
  <scstep>
   <time name="dav">    0.50    0.50</time>
   <time name="total">    0.50    0.50</time>
   <energy>
    <i name="e_fr_energy">    -53.81245388 </i>
    <i name="e_wo_entrp">    -53.82120566 </i>
    <i name="e_0_energy">    -53.81537114 </i>
   </energy>
  </scstep>
  <scstep>
   <time name="dav">    0.62    0.62</time>
   <time name="total">    0.72    0.73</time>
   <energy>
    <i name="e_fr_energy">    -53.81265704 </i>
    <i name="e_wo_entrp">    -53.82141616 </i>
    <i name="e_0_energy">    -53.81557675 </i>
   </energy>
  </scstep>
  <scstep>
   <time name="diag">    0.06    0.06</time>
   <time name="diis">    0.32    0.32</time>
   <time name="orth">    0.00    0.00</time>
   <time name="total">    0.54    0.55</time>
   <energy>
    <i name="e_fr_energy">    -47.80866213 </i>
    <i name="e_wo_entrp">    -47.81073212 </i>
    <i name="e_0_energy">    -47.80935213 </i>
   </energy>
  </scstep>
  <scstep>
   <time name="diag">    0.06    0.06</time>
   <time name="diis">    0.32    0.32</time>
   <time name="orth">    0.00    0.00</time>
   <time name="total">    0.54    0.55</time>
   <energy>
    <i name="e_fr_energy">    -47.72832451 </i>
    <i name="e_wo_entrp">    -47.73039621 </i>
    <i name="e_0_energy">    -47.72901508 </i>
   </energy>
  </scstep>
  <scstep>
   <time name="diag">    0.06    0.06</time>
   <time name="diis">    0.32    0.32</time>
   <time name="orth">    0.00    0.00</time>
   <time name="total">    0.54    0.55</time>
   <energy>
    <i name="e_fr_energy">    -47.70876242 </i>
    <i name="e_wo_entrp">    -47.71088989 </i>
    <i name="e_0_energy">    -47.70947158 </i>
   </energy>
  </scstep>
  <scstep>
   <time name="diag">    0.06    0.06</time>
   <time name="diis">    0.32    0.32</time>
   <time name="orth">    0.00    0.00</time>
   <time name="total">    0.54    0.55</time>
   <energy>
    <i name="e_fr_energy">    -47.70903105 </i>
    <i name="e_wo_entrp">    -47.71106671 </i>
    <i name="e_0_energy">    -47.70970960 </i>
   </energy>
  </scstep>
  <scstep>
   <time name="diag">    0.06    0.06</time>
   <time name="diis">    0.32    0.32</time>
   <time name="orth">    0.00    0.00</time>
   <time name="total">    0.54    0.55</time>
   <energy>
    <i name="e_fr_energy">    -47.70501612 </i>
    <i name="e_wo_entrp">    -47.70708559 </i>
    <i name="e_0_energy">    -47.70570594 </i>
   </energy>
  </scstep>
  <scstep>
   <time name="diag">    0.06    0.06</time>
   <time name="diis">    0.32    0.32</time>
   <time name="orth">    0.00    0.00</time>
   <time name="total">    0.54    0.54</time>
   <energy>
    <i name="e_fr_energy">    -47.70488468 </i>
    <i name="e_wo_entrp">    -47.70696231 </i>
    <i name="e_0_energy">    -47.70557723 </i>
   </energy>
  </scstep>
  <scstep>
   <time name="diag">    0.06    0.06</time>
   <time name="diis">    0.32    0.32</time>
   <time name="orth">    0.01    0.00</time>
   <time name="total">    0.54    0.54</time>
   <energy>
    <i name="e_fr_energy">    -47.70488557 </i>
    <i name="e_wo_entrp">    -47.70696212 </i>
    <i name="e_0_energy">    -47.70557775 </i>
   </energy>
  </scstep>
  <scstep>
   <time name="diag">    0.06    0.06</time>
   <time name="diis">    0.32    0.32</time>
   <time name="orth">    0.00    0.00</time>
   <time name="total">    0.54    0.55</time>
   <energy>
    <i name="e_fr_energy">    -47.70488562 </i>
    <i name="e_wo_entrp">    -47.70696266 </i>
    <i name="e_0_energy">    -47.70557797 </i>
   </energy>
  </scstep>
  <scstep>
   <time name="diag">    0.06    0.06</time>
   <time name="diis">    0.23    0.23</time>
   <time name="orth">    0.00    0.00</time>
   <time name="total">    0.35    0.35</time>
   <energy>
    <i name="alphaZ">     78.08154967 </i>
    <i name="ewald">  -1431.92884002 </i>
    <i name="hartreedc">   -564.42109567 </i>
    <i name="XCdc">    -75.55295479 </i>
    <i name="pawpsdc">   2240.80360683 </i>
    <i name="pawaedc">  -2041.61878719 </i>
    <i name="eentropy">      0.00207700 </i>
    <i name="bandstr">    -74.27031946 </i>
    <i name="atom">   1821.19987801 </i>
    <i name="e_fr_energy">    -47.70488562 </i>
    <i name="e_wo_entrp">    -47.70696261 </i>
    <i name="e_0_energy">    -47.70557795 </i>
   </energy>
  </scstep>
  <structure>
   <crystal>
    <varray name="basis" >
     <v>       4.24247725       0.00000000       0.00000000 </v>
     <v>       0.00000000       4.20047253       0.00000000 </v>
     <v>       0.00000000       0.00000000       4.20047253 </v>
    </varray>
    <i name="volume">     74.85413894 </i>
    <varray name="rec_basis" >
     <v>       0.23571134       0.00000000       0.00000000 </v>
     <v>       0.00000000       0.23806845       0.00000000 </v>
     <v>       0.00000000       0.00000000       0.23806845 </v>
    </varray>
   </crystal>
   <varray name="positions" >
    <v>       0.00000000       0.00000000       0.00000000 </v>
    <v>       0.00000000       0.50000000       0.50000000 </v>
    <v>       0.50000000       0.00000000       0.50000000 </v>
    <v>       0.50000000       0.50000000       0.00000000 </v>
    <v>       0.50000000       0.50000000       0.50000000 </v>
    <v>       0.50000000       0.00000000       0.00000000 </v>
    <v>       0.00000000       0.50000000       0.00000000 </v>
    <v>       0.00000000       0.00000000       0.50000000 </v>
   </varray>
  </structure>
  <varray name="forces" >
   <v>      -0.00000000       0.00000000       0.00000000 </v>
   <v>      -0.00000000      -0.00000000      -0.00000000 </v>
   <v>      -0.00000000       0.00000000       0.00000000 </v>
   <v>      -0.00000000      -0.00000000      -0.00000000 </v>
   <v>      -0.00000000       0.00000000      -0.00000000 </v>
   <v>      -0.00000000      -0.00000000      -0.00000000 </v>
   <v>       0.00000000      -0.00000000       0.00000000 </v>
   <v>      -0.00000000       0.00000000       0.00000000 </v>
  </varray>
  <varray name="stress" >
   <v>     -27.07114407      -0.00000000       0.00000000 </v>
   <v>       0.00000000      -7.30296410       0.00000000 </v>
   <v>       0.00000000       0.00000000      -7.30296410 </v>
  </varray>
  <energy>
   <i name="e_fr_energy">    -47.70488562 </i>
   <i name="e_wo_entrp">    -47.70557795 </i>
   <i name="e_0_energy">      0.00207700 </i>
  </energy>
  <time name="totalsc">    8.94    9.02</time>
  <eigenvalues>
   <array>
    <dimension dim="1">band</dimension>
    <dimension dim="2">kpoint</dimension>
    <dimension dim="3">spin</dimension>
    <field>eigene</field>
    <field>occ</field>
    <set>
     <set comment="spin 1">
      <set comment="kpoint 1">
       <r>  -14.0856    1.0000 </r>
       <r>  -12.5700    1.0000 </r>
       <r>  -12.5424    1.0000 </r>
       <r>  -12.5424    1.0000 </r>
       <r>   -0.9339    1.0000 </r>
       <r>   -0.8986    1.0000 </r>
       <r>   -0.8986    1.0000 </r>
       <r>    1.7744    1.0000 </r>
       <r>    1.7744    1.0000 </r>
       <r>    1.8372    1.0000 </r>
       <r>    1.8372    1.0000 </r>
       <r>    1.8472    1.0000 </r>
       <r>    1.8472    1.0000 </r>
       <r>    3.1556    1.0002 </r>
       <r>    3.1556    1.0002 </r>
       <r>    3.1775    0.9710 </r>
       <r>    7.8814   -0.0000 </r>
       <r>   12.2665    0.0000 </r>
       <r>   12.2665    0.0000 </r>
       <r>   12.3692    0.0000 </r>
       <r>   13.1232    0.0000 </r>
       <r>   13.1232    0.0000 </r>
       <r>   13.1380    0.0000 </r>
       <r>   16.1832    0.0000 </r>
      </set>
      <set comment="kpoint 2">
       <r>  -13.7239    1.0000 </r>
       <r>  -12.9638    1.0000 </r>
       <r>  -12.5057    1.0000 </r>
       <r>  -12.5057    1.0000 </r>
       <r>   -0.3821    1.0000 </r>
       <r>   -0.3821    1.0000 </r>
       <r>   -0.2690    1.0000 </r>
       <r>    0.9063    1.0000 </r>
       <r>    0.9063    1.0000 </r>
       <r>    1.5294    1.0000 </r>
       <r>    1.5294    1.0000 </r>
       <r>    1.5928    1.0000 </r>
       <r>    2.1356    1.0000 </r>
       <r>    2.1356    1.0000 </r>
       <r>    2.7808    1.0004 </r>
       <r>    2.7808    1.0004 </r>
       <r>    9.7879    0.0000 </r>
       <r>   12.4553    0.0000 </r>
       <r>   13.2682    0.0000 </r>
       <r>   13.6994    0.0000 </r>
       <r>   13.6994    0.0000 </r>
       <r>   14.5577    0.0000 </r>
       <r>   14.5926    0.0000 </r>
       <r>   15.6738    0.0000 </r>
      </set>
      <set comment="kpoint 3">
       <r>  -13.7148    1.0000 </r>
       <r>  -12.9405    1.0000 </r>
       <r>  -12.5224    1.0000 </r>
       <r>  -12.5084    1.0000 </r>
       <r>   -0.4012    1.0000 </r>
       <r>   -0.3699    1.0000 </r>
       <r>   -0.2594    1.0000 </r>
       <r>    0.9324    1.0000 </r>
       <r>    0.9525    1.0000 </r>
       <r>    1.4673    1.0000 </r>
       <r>    1.5022    1.0000 </r>
       <r>    1.5764    1.0000 </r>
       <r>    2.0775    1.0000 </r>
       <r>    2.1288    1.0000 </r>
       <r>    2.7572    1.0002 </r>
       <r>    2.7926    1.0006 </r>
       <r>    9.7856    0.0000 </r>
       <r>   12.4519    0.0000 </r>
       <r>   13.1861    0.0000 </r>
       <r>   13.6877    0.0000 </r>
       <r>   13.7964    0.0000 </r>
       <r>   14.5707    0.0000 </r>
       <r>   14.6226    0.0000 </r>
       <r>   15.5849    0.0000 </r>
      </set>
      <set comment="kpoint 4">
       <r>  -13.4109    1.0000 </r>
       <r>  -12.8109    1.0000 </r>
       <r>  -12.7973    1.0000 </r>
       <r>  -12.5788    1.0000 </r>
       <r>   -0.3580    1.0000 </r>
       <r>   -0.3579    1.0000 </r>
       <r>   -0.0453    1.0000 </r>
       <r>    0.1144    1.0000 </r>
       <r>    0.5578    1.0000 </r>
       <r>    1.3013    1.0000 </r>
       <r>    1.3345    1.0000 </r>
       <r>    2.1444    1.0000 </r>
       <r>    2.1569    1.0000 </r>
       <r>    2.1657    1.0000 </r>
       <r>    2.2258    1.0000 </r>
       <r>    2.8470    1.0019 </r>
       <r>   10.8458    0.0000 </r>
       <r>   13.1576    0.0000 </r>
       <r>   13.1677    0.0000 </r>
       <r>   13.4491    0.0000 </r>
       <r>   14.2400    0.0000 </r>
       <r>   14.3077    0.0000 </r>
       <r>   15.4154    0.0000 </r>
       <r>   15.4228    0.0000 </r>
      </set>
      <set comment="kpoint 5">
       <r>  -13.4042    1.0000 </r>
       <r>  -12.7961    1.0000 </r>
       <r>  -12.7961    1.0000 </r>
       <r>  -12.5850    1.0000 </r>
       <r>   -0.3774    1.0000 </r>
       <r>   -0.3774    1.0000 </r>
       <r>   -0.0617    1.0000 </r>
       <r>    0.0964    1.0000 </r>
       <r>    0.5211    1.0000 </r>
       <r>    1.3240    1.0000 </r>
       <r>    1.3240    1.0000 </r>
       <r>    2.1433    1.0000 </r>
       <r>    2.1433    1.0000 </r>
       <r>    2.1853    1.0000 </r>
       <r>    2.2416    1.0000 </r>
       <r>    2.8506    1.0020 </r>
       <r>   10.8401    0.0000 </r>
       <r>   13.1774    0.0000 </r>
       <r>   13.1774    0.0000 </r>
       <r>   13.5202    0.0000 </r>
       <r>   14.2067    0.0000 </r>
       <r>   14.2067    0.0000 </r>
       <r>   15.3123    0.0000 </r>
       <r>   15.3491    0.0000 </r>
      </set>
      <set comment="kpoint 6">
       <r>  -13.1724    1.0000 </r>
       <r>  -12.7562    1.0000 </r>
       <r>  -12.7487    1.0000 </r>
       <r>  -12.7487    1.0000 </r>
       <r>   -0.9947    1.0000 </r>
       <r>   -0.9947    1.0000 </r>
       <r>   -0.9887    1.0000 </r>
       <r>   -0.4967    1.0000 </r>
       <r>    1.7144    1.0000 </r>
       <r>    1.7387    1.0000 </r>
       <r>    1.7387    1.0000 </r>
       <r>    2.3188    1.0000 </r>
       <r>    2.3188    1.0000 </r>
       <r>    2.3416    1.0000 </r>
       <r>    2.6569    1.0000 </r>
       <r>    2.6698    1.0000 </r>
       <r>   10.8282    0.0000 </r>
       <r>   12.1528    0.0000 </r>
       <r>   12.1528    0.0000 </r>
       <r>   12.1673    0.0000 </r>
       <r>   15.3667    0.0000 </r>
       <r>   15.3667    0.0000 </r>
       <r>   15.3917    0.0000 </r>
       <r>   15.4955    0.0000 </r>
      </set>
     </set>
    </set>
   </array>
  </eigenvalues>
  <separator name="orbital magnetization" >
   <v name="MAGDIPOLOUT">      0.00000000      0.00000000      0.00000000</v>
  </separator>
  <dos>
   <i name="efermi">      3.32416399 </i>
   <total>
    <array>
     <dimension dim="1">gridpoints</dimension>
     <dimension dim="2">spin</dimension>
     <field>energy</field>
     <field>total</field>
     <field>integrated</field>
     <set>
      <set comment="spin 1">
       <r>   -16.0856     0.0000     0.0000 </r>
       <r>   -15.9714     0.0000     0.0000 </r>
       <r>   -15.8572     0.0000     0.0000 </r>
       <r>   -15.7429    -0.0000    -0.0000 </r>
       <r>   -15.6287    -0.0000    -0.0000 </r>
       <r>   -15.5145    -0.0000    -0.0000 </r>
       <r>   -15.4003    -0.0000    -0.0000 </r>
       <r>   -15.2860    -0.0000    -0.0000 </r>
       <r>   -15.1718    -0.0000    -0.0000 </r>
       <r>   -15.0576    -0.0000    -0.0000 </r>
       <r>   -14.9433    -0.0000    -0.0000 </r>
       <r>   -14.8291    -0.0000    -0.0000 </r>
       <r>   -14.7149    -0.0000    -0.0000 </r>
       <r>   -14.6006    -0.0005    -0.0001 </r>
       <r>   -14.4864    -0.0046    -0.0006 </r>
       <r>   -14.3722    -0.0147    -0.0023 </r>
       <r>   -14.2580     0.0154    -0.0005 </r>
       <r>   -14.1437     0.1564     0.0174 </r>
       <r>   -14.0295     0.2221     0.0427 </r>
       <r>   -13.9153     0.1761     0.0629 </r>
       <r>   -13.8010     0.7466     0.1481 </r>
       <r>   -13.6868     1.5517     0.3254 </r>
       <r>   -13.5726     1.5678     0.5045 </r>
       <r>   -13.4584     2.4053     0.7792 </r>
       <r>   -13.3441     3.6011     1.1906 </r>
       <r>   -13.2299     3.1430     1.5496 </r>
       <r>   -13.1157     2.1799     1.7986 </r>
       <r>   -13.0014     1.9426     2.0205 </r>
       <r>   -12.8872     5.9628     2.7016 </r>
       <r>   -12.7730    13.3124     4.2223 </r>
       <r>   -12.6587    14.7439     5.9065 </r>
       <r>   -12.5445    10.7654     7.1362 </r>
       <r>   -12.4303     6.3452     7.8610 </r>
       <r>   -12.3161     1.8175     8.0686 </r>
       <r>   -12.2018    -0.2785     8.0368 </r>
       <r>   -12.0876    -0.2653     8.0065 </r>
       <r>   -11.9734    -0.0524     8.0005 </r>
       <r>   -11.8591    -0.0044     8.0000 </r>
       <r>   -11.7449    -0.0002     8.0000 </r>
       <r>   -11.6307    -0.0000     8.0000 </r>
       <r>   -11.5165    -0.0000     8.0000 </r>
       <r>   -11.4022    -0.0000     8.0000 </r>
       <r>   -11.2880    -0.0000     8.0000 </r>
       <r>   -11.1738    -0.0000     8.0000 </r>
       <r>   -11.0595     0.0000     8.0000 </r>
       <r>   -10.9453     0.0000     8.0000 </r>
       <r>   -10.8311     0.0000     8.0000 </r>
       <r>   -10.7168     0.0000     8.0000 </r>
       <r>   -10.6026     0.0000     8.0000 </r>
       <r>   -10.4884     0.0000     8.0000 </r>
       <r>   -10.3742     0.0000     8.0000 </r>
       <r>   -10.2599     0.0000     8.0000 </r>
       <r>   -10.1457     0.0000     8.0000 </r>
       <r>   -10.0315     0.0000     8.0000 </r>
       <r>    -9.9172     0.0000     8.0000 </r>
       <r>    -9.8030     0.0000     8.0000 </r>
       <r>    -9.6888     0.0000     8.0000 </r>
       <r>    -9.5746     0.0000     8.0000 </r>
       <r>    -9.4603     0.0000     8.0000 </r>
       <r>    -9.3461     0.0000     8.0000 </r>
       <r>    -9.2319     0.0000     8.0000 </r>
       <r>    -9.1176     0.0000     8.0000 </r>
       <r>    -9.0034     0.0000     8.0000 </r>
       <r>    -8.8892     0.0000     8.0000 </r>
       <r>    -8.7749     0.0000     8.0000 </r>
       <r>    -8.6607     0.0000     8.0000 </r>
       <r>    -8.5465     0.0000     8.0000 </r>
       <r>    -8.4323     0.0000     8.0000 </r>
       <r>    -8.3180     0.0000     8.0000 </r>
       <r>    -8.2038     0.0000     8.0000 </r>
       <r>    -8.0896     0.0000     8.0000 </r>
       <r>    -7.9753     0.0000     8.0000 </r>
       <r>    -7.8611     0.0000     8.0000 </r>
       <r>    -7.7469     0.0000     8.0000 </r>
       <r>    -7.6327     0.0000     8.0000 </r>
       <r>    -7.5184     0.0000     8.0000 </r>
       <r>    -7.4042     0.0000     8.0000 </r>
       <r>    -7.2900     0.0000     8.0000 </r>
       <r>    -7.1757     0.0000     8.0000 </r>
       <r>    -7.0615     0.0000     8.0000 </r>
       <r>    -6.9473     0.0000     8.0000 </r>
       <r>    -6.8331     0.0000     8.0000 </r>
       <r>    -6.7188     0.0000     8.0000 </r>
       <r>    -6.6046     0.0000     8.0000 </r>
       <r>    -6.4904     0.0000     8.0000 </r>
       <r>    -6.3761     0.0000     8.0000 </r>
       <r>    -6.2619     0.0000     8.0000 </r>
       <r>    -6.1477     0.0000     8.0000 </r>
       <r>    -6.0334     0.0000     8.0000 </r>
       <r>    -5.9192     0.0000     8.0000 </r>
       <r>    -5.8050     0.0000     8.0000 </r>
       <r>    -5.6908     0.0000     8.0000 </r>
       <r>    -5.5765     0.0000     8.0000 </r>
       <r>    -5.4623     0.0000     8.0000 </r>
       <r>    -5.3481     0.0000     8.0000 </r>
       <r>    -5.2338     0.0000     8.0000 </r>
       <r>    -5.1196     0.0000     8.0000 </r>
       <r>    -5.0054     0.0000     8.0000 </r>
       <r>    -4.8912     0.0000     8.0000 </r>
       <r>    -4.7769     0.0000     8.0000 </r>
       <r>    -4.6627     0.0000     8.0000 </r>
       <r>    -4.5485     0.0000     8.0000 </r>
       <r>    -4.4342     0.0000     8.0000 </r>
       <r>    -4.3200     0.0000     8.0000 </r>
       <r>    -4.2058     0.0000     8.0000 </r>
       <r>    -4.0915     0.0000     8.0000 </r>
       <r>    -3.9773     0.0000     8.0000 </r>
       <r>    -3.8631     0.0000     8.0000 </r>
       <r>    -3.7489     0.0000     8.0000 </r>
       <r>    -3.6346     0.0000     8.0000 </r>
       <r>    -3.5204     0.0000     8.0000 </r>
       <r>    -3.4062     0.0000     8.0000 </r>
       <r>    -3.2919     0.0000     8.0000 </r>
       <r>    -3.1777     0.0000     8.0000 </r>
       <r>    -3.0635     0.0000     8.0000 </r>
       <r>    -2.9493     0.0000     8.0000 </r>
       <r>    -2.8350     0.0000     8.0000 </r>
       <r>    -2.7208     0.0000     8.0000 </r>
       <r>    -2.6066    -0.0000     8.0000 </r>
       <r>    -2.4923    -0.0000     8.0000 </r>
       <r>    -2.3781    -0.0000     8.0000 </r>
       <r>    -2.2639    -0.0000     8.0000 </r>
       <r>    -2.1496    -0.0000     8.0000 </r>
       <r>    -2.0354    -0.0000     8.0000 </r>
       <r>    -1.9212    -0.0000     8.0000 </r>
       <r>    -1.8070    -0.0000     8.0000 </r>
       <r>    -1.6927    -0.0001     8.0000 </r>
       <r>    -1.5785    -0.0021     7.9998 </r>
       <r>    -1.4643    -0.0317     7.9961 </r>
       <r>    -1.3500    -0.2069     7.9725 </r>
       <r>    -1.2358    -0.3528     7.9322 </r>
       <r>    -1.1216     1.4902     8.1024 </r>
       <r>    -1.0074     6.1925     8.8098 </r>
       <r>    -0.8931     7.4832     9.6646 </r>
       <r>    -0.7789     2.9674    10.0035 </r>
       <r>    -0.6647    -0.3354     9.9652 </r>
       <r>    -0.5504     1.5184    10.1387 </r>
       <r>    -0.4362     8.1950    11.0748 </r>
       <r>    -0.3220    12.8587    12.5436 </r>
       <r>    -0.2078     8.9744    13.5688 </r>
       <r>    -0.0935     4.2895    14.0588 </r>
       <r>     0.0207     4.6026    14.5845 </r>
       <r>     0.1349     4.9479    15.1497 </r>
       <r>     0.2492     2.5965    15.4463 </r>
       <r>     0.3634     0.5471    15.5088 </r>
       <r>     0.4776     1.6532    15.6976 </r>
       <r>     0.5919     3.3254    16.0775 </r>
       <r>     0.7061     2.2212    16.3312 </r>
       <r>     0.8203     1.4143    16.4928 </r>
       <r>     0.9345     2.8679    16.8204 </r>
       <r>     1.0488     2.6240    17.1201 </r>
       <r>     1.1630     1.5489    17.2970 </r>
       <r>     1.2772     4.4795    17.8087 </r>
       <r>     1.3915     7.8708    18.7078 </r>
       <r>     1.5057     7.3731    19.5500 </r>
       <r>     1.6199     7.1246    20.3638 </r>
       <r>     1.7341     8.8224    21.3716 </r>
       <r>     1.8484     7.1492    22.1883 </r>
       <r>     1.9626     3.2409    22.5585 </r>
       <r>     2.0768     7.5365    23.4194 </r>
       <r>     2.1911    17.4217    25.4094 </r>
       <r>     2.3053    18.3356    27.5039 </r>
       <r>     2.4195     9.7384    28.6163 </r>
       <r>     2.5338     2.8591    28.9429 </r>
       <r>     2.6480     4.1310    29.4148 </r>
       <r>     2.7622     8.5368    30.3899 </r>
       <r>     2.8764     8.3978    31.3492 </r>
       <r>     2.9907     3.9179    31.7967 </r>
       <r>     3.1049     0.8311    31.8917 </r>
       <r>     3.2191     0.5478    31.9543 </r>
       <r>     3.3334     0.4178    32.0020 </r>
       <r>     3.4476     0.0433    32.0069 </r>
       <r>     3.5618    -0.0446    32.0018 </r>
       <r>     3.6760    -0.0143    32.0002 </r>
       <r>     3.7903    -0.0016    32.0000 </r>
       <r>     3.9045    -0.0001    32.0000 </r>
       <r>     4.0187    -0.0000    32.0000 </r>
       <r>     4.1330    -0.0000    32.0000 </r>
       <r>     4.2472    -0.0000    32.0000 </r>
       <r>     4.3614    -0.0000    32.0000 </r>
       <r>     4.4757    -0.0000    32.0000 </r>
       <r>     4.5899     0.0000    32.0000 </r>
       <r>     4.7041     0.0000    32.0000 </r>
       <r>     4.8183     0.0000    32.0000 </r>
       <r>     4.9326     0.0000    32.0000 </r>
       <r>     5.0468     0.0000    32.0000 </r>
       <r>     5.1610     0.0000    32.0000 </r>
       <r>     5.2753     0.0000    32.0000 </r>
       <r>     5.3895     0.0000    32.0000 </r>
       <r>     5.5037     0.0000    32.0000 </r>
       <r>     5.6179     0.0000    32.0000 </r>
       <r>     5.7322     0.0000    32.0000 </r>
       <r>     5.8464     0.0000    32.0000 </r>
       <r>     5.9606     0.0000    32.0000 </r>
       <r>     6.0749     0.0000    32.0000 </r>
       <r>     6.1891    -0.0000    32.0000 </r>
       <r>     6.3033    -0.0000    32.0000 </r>
       <r>     6.4175    -0.0000    32.0000 </r>
       <r>     6.5318    -0.0000    32.0000 </r>
       <r>     6.6460    -0.0000    32.0000 </r>
       <r>     6.7602    -0.0000    32.0000 </r>
       <r>     6.8745    -0.0000    32.0000 </r>
       <r>     6.9887    -0.0000    32.0000 </r>
       <r>     7.1029    -0.0000    32.0000 </r>
       <r>     7.2172    -0.0000    32.0000 </r>
       <r>     7.3314    -0.0002    32.0000 </r>
       <r>     7.4456    -0.0026    31.9997 </r>
       <r>     7.5598    -0.0119    31.9983 </r>
       <r>     7.6741    -0.0038    31.9979 </r>
       <r>     7.7883     0.1154    32.0111 </r>
       <r>     7.9025     0.2850    32.0436 </r>
       <r>     8.0168     0.2351    32.0705 </r>
       <r>     8.1310     0.0544    32.0767 </r>
       <r>     8.2452    -0.0141    32.0751 </r>
       <r>     8.3594    -0.0077    32.0742 </r>
       <r>     8.4737    -0.0011    32.0741 </r>
       <r>     8.5879    -0.0001    32.0741 </r>
       <r>     8.7021    -0.0000    32.0741 </r>
       <r>     8.8164    -0.0000    32.0741 </r>
       <r>     8.9306    -0.0000    32.0741 </r>
       <r>     9.0448    -0.0000    32.0741 </r>
       <r>     9.1591    -0.0002    32.0741 </r>
       <r>     9.2733    -0.0032    32.0737 </r>
       <r>     9.3875    -0.0283    32.0705 </r>
       <r>     9.5017    -0.0885    32.0603 </r>
       <r>     9.6160     0.1116    32.0731 </r>
       <r>     9.7302     1.0680    32.1951 </r>
       <r>     9.8444     1.7981    32.4005 </r>
       <r>     9.9587     1.0492    32.5203 </r>
       <r>    10.0729     0.1028    32.5321 </r>
       <r>    10.1871    -0.0883    32.5220 </r>
       <r>    10.3013    -0.0338    32.5181 </r>
       <r>    10.4156    -0.0685    32.5103 </r>
       <r>    10.5298    -0.2636    32.4802 </r>
       <r>    10.6440     0.0638    32.4875 </r>
       <r>    10.7583     2.7672    32.8036 </r>
       <r>    10.8725     5.8660    33.4737 </r>
       <r>    10.9867     4.2709    33.9615 </r>
       <r>    11.1010     0.7799    34.0506 </r>
       <r>    11.2152    -0.2959    34.0168 </r>
       <r>    11.3294    -0.1289    34.0021 </r>
       <r>    11.4436    -0.0172    34.0001 </r>
       <r>    11.5579    -0.0025    33.9998 </r>
       <r>    11.6721    -0.0236    33.9971 </r>
       <r>    11.7863    -0.1701    33.9777 </r>
       <r>    11.9006    -0.3664    33.9358 </r>
       <r>    12.0148     1.0461    34.0553 </r>
       <r>    12.1290     5.3837    34.6703 </r>
       <r>    12.2432     7.4595    35.5224 </r>
       <r>    12.3575     4.5604    36.0433 </r>
       <r>    12.4717     2.2083    36.2956 </r>
       <r>    12.5859     1.2207    36.4350 </r>
       <r>    12.7002     0.1954    36.4574 </r>
       <r>    12.8144    -0.3847    36.4134 </r>
       <r>    12.9286    -0.4319    36.3641 </r>
       <r>    13.0428     2.1431    36.6089 </r>
       <r>    13.1571     7.7851    37.4981 </r>
       <r>    13.2713     8.9775    38.5236 </r>
       <r>    13.3855     4.9623    39.0905 </r>
       <r>    13.4998     3.2405    39.4606 </r>
       <r>    13.6140     3.4247    39.8518 </r>
       <r>    13.7282     3.5222    40.2542 </r>
       <r>    13.8425     2.6491    40.5568 </r>
       <r>    13.9567     0.7012    40.6369 </r>
       <r>    14.0709     0.4601    40.6895 </r>
       <r>    14.1851     3.7203    41.1144 </r>
       <r>    14.2994     6.5112    41.8582 </r>
       <r>    14.4136     4.7057    42.3957 </r>
       <r>    14.5278     2.8836    42.7251 </r>
       <r>    14.6421     3.2245    43.0935 </r>
       <r>    14.7563     2.0533    43.3280 </r>
       <r>    14.8705     0.2502    43.3566 </r>
       <r>    14.9847    -0.4207    43.3085 </r>
       <r>    15.0990    -0.7350    43.2246 </r>
       <r>    15.2132     1.0751    43.3474 </r>
       <r>    15.3274     8.6463    44.3350 </r>
       <r>    15.4417    15.4350    46.0982 </r>
       <r>    15.5559    11.7250    47.4375 </r>
       <r>    15.6701     4.0999    47.9058 </r>
       <r>    15.7844     0.5229    47.9656 </r>
       <r>    15.8986    -0.1893    47.9439 </r>
       <r>    16.0128    -0.1161    47.9307 </r>
       <r>    16.1270     0.1405    47.9467 </r>
       <r>    16.2413     0.2947    47.9804 </r>
       <r>    16.3555     0.1744    48.0003 </r>
       <r>    16.4697     0.0171    48.0023 </r>
       <r>    16.5840    -0.0147    48.0006 </r>
       <r>    16.6982    -0.0046    48.0001 </r>
       <r>    16.8124    -0.0005    48.0000 </r>
       <r>    16.9266    -0.0000    48.0000 </r>
       <r>    17.0409    -0.0000    48.0000 </r>
       <r>    17.1551    -0.0000    48.0000 </r>
       <r>    17.2693    -0.0000    48.0000 </r>
       <r>    17.3836    -0.0000    48.0000 </r>
       <r>    17.4978    -0.0000    48.0000 </r>
       <r>    17.6120     0.0000    48.0000 </r>
       <r>    17.7263     0.0000    48.0000 </r>
       <r>    17.8405     0.0000    48.0000 </r>
       <r>    17.9547     0.0000    48.0000 </r>
       <r>    18.0689     0.0000    48.0000 </r>
       <r>    18.1832     0.0000    48.0000 </r>
      </set>
     </set>
    </array>
   </total>
  </dos>
 </calculation>
 <structure name="finalpos" >
  <crystal>
   <varray name="basis" >
    <v>       4.24247725       0.00000000       0.00000000 </v>
    <v>       0.00000000       4.20047253       0.00000000 </v>
    <v>       0.00000000       0.00000000       4.20047253 </v>
   </varray>
   <i name="volume">     74.85413894 </i>
   <varray name="rec_basis" >
    <v>       0.23571134       0.00000000       0.00000000 </v>
    <v>       0.00000000       0.23806845       0.00000000 </v>
    <v>       0.00000000       0.00000000       0.23806845 </v>
   </varray>
  </crystal>
  <varray name="positions" >
   <v>       0.00000000       0.00000000       0.00000000 </v>
   <v>       0.00000000       0.50000000       0.50000000 </v>
   <v>       0.50000000       0.00000000       0.50000000 </v>
   <v>       0.50000000       0.50000000       0.00000000 </v>
   <v>       0.50000000       0.50000000       0.50000000 </v>
   <v>       0.50000000       0.00000000       0.00000000 </v>
   <v>       0.00000000       0.50000000       0.00000000 </v>
   <v>       0.00000000       0.00000000       0.50000000 </v>
  </varray>
 </structure>
</modeling>
