<?xml version="1.0" encoding="ISO-8859-1"?>
<modeling>
 <generator>
  <i name="program" type="string">vasp </i>
  <i name="version" type="string">5.4.1  </i>
  <i name="subversion" type="string">24Jun15 (build Oct  9 2015 14:58:31) complex                          parallel </i>
  <i name="platform" type="string">IFC91_ompi </i>
  <i name="date" type="string">2017 09 13 </i>
  <i name="time" type="string">10:58:55 </i>
 </generator>
 <incar>
  <i type="string" name="PREC">accurate</i>
  <i type="string" name="ALGO"> Fast</i>
  <i type="int" name="IBRION">     2</i>
  <i name="EDIFF">      0.00000001</i>
  <i type="int" name="NSW">    30</i>
  <i type="int" name="ISIF">     2</i>
  <i type="string" name="LREAL"> A</i>
  <i type="logical" name="LWAVE"> F  </i>
  <i type="logical" name="LCHARG"> F  </i>
  <v type="int" name="KPOINT_BSE">    -1     0     0     0</v>
  <i type="string" name="GGA"> PE</i>
 </incar>
 <kpoints>
  <generation param="Monkhorst-Pack">
   <v type="int" name="divisions">       3        3        3 </v>
   <v name="usershift">      0.00000000       0.00000000       0.00000000 </v>
   <v name="genvec1">      0.33333333       0.00000000       0.00000000 </v>
   <v name="genvec2">      0.00000000       0.33333333       0.00000000 </v>
   <v name="genvec3">      0.00000000       0.00000000       0.33333333 </v>
   <v name="shift">      0.00000000       0.00000000       0.00000000 </v>
  </generation>
  <varray name="kpointlist" >
   <v>       0.00000000       0.00000000       0.00000000 </v>
   <v>       0.33333333       0.00000000       0.00000000 </v>
   <v>       0.00000000       0.33333333       0.00000000 </v>
   <v>       0.33333333       0.33333333       0.00000000 </v>
   <v>       0.00000000       0.33333333       0.33333333 </v>
   <v>       0.33333333       0.33333333       0.33333333 </v>
  </varray>
  <varray name="weights" >
   <v>       0.03703704 </v>
   <v>       0.07407407 </v>
   <v>       0.14814815 </v>
   <v>       0.29629630 </v>
   <v>       0.14814815 </v>
   <v>       0.29629630 </v>
  </varray>
 </kpoints>
 <parameters>
  <separator name="general" >
   <i type="string" name="SYSTEM">unknown system</i>
   <i type="logical" name="LCOMPAT"> F  </i>
  </separator>
  <separator name="electronic" >
   <i type="string" name="PREC">accura</i>
   <i name="ENMAX">    400.00000000</i>
   <i name="ENAUG">    605.39200000</i>
   <i name="EDIFF">      0.00000001</i>
   <i type="int" name="IALGO">    68</i>
   <i type="int" name="IWAVPR">    11</i>
   <i type="int" name="NBANDS">    24</i>
   <i name="NELECT">     32.00000000</i>
   <i type="int" name="TURBO">     0</i>
   <i type="int" name="IRESTART">     0</i>
   <i type="int" name="NREBOOT">     0</i>
   <i type="int" name="NMIN">     0</i>
   <i name="EREF">      0.00000000</i>
   <separator name="electronic smearing" >
    <i type="int" name="ISMEAR">     1</i>
    <i name="SIGMA">      0.20000000</i>
    <i name="KSPACING">      0.50000000</i>
    <i type="logical" name="KGAMMA"> T  </i>
   </separator>
   <separator name="electronic projectors" >
    <i type="logical" name="LREAL"> T  </i>
    <v name="ROPT">     -0.00025000     -0.00025000</v>
    <i type="int" name="LMAXPAW">  -100</i>
    <i type="int" name="LMAXMIX">     2</i>
    <i type="logical" name="NLSPLINE"> F  </i>
   </separator>
   <separator name="electronic startup" >
    <i type="int" name="ISTART">     0</i>
    <i type="int" name="ICHARG">     2</i>
    <i type="int" name="INIWAV">     1</i>
   </separator>
   <separator name="electronic spin" >
    <i type="int" name="ISPIN">     1</i>
    <i type="logical" name="LNONCOLLINEAR"> F  </i>
    <v name="MAGMOM">      1.00000000      1.00000000      1.00000000      1.00000000      1.00000000      1.00000000      1.00000000      1.00000000</v>
    <i name="NUPDOWN">     -1.00000000</i>
    <i type="logical" name="LSORBIT"> F  </i>
    <v name="SAXIS">      0.00000000      0.00000000      1.00000000</v>
    <i type="logical" name="LSPIRAL"> F  </i>
    <v name="QSPIRAL">      0.00000000      0.00000000      0.00000000</v>
    <i type="logical" name="LZEROZ"> F  </i>
   </separator>
   <separator name="electronic exchange-correlation" >
    <i type="logical" name="LASPH"> F  </i>
    <i type="logical" name="LMETAGGA"> F  </i>
   </separator>
   <separator name="electronic convergence" >
    <i type="int" name="NELM">    60</i>
    <i type="int" name="NELMDL">    -5</i>
    <i type="int" name="NELMIN">     2</i>
    <i name="ENINI">    400.00000000</i>
    <separator name="electronic convergence detail" >
     <i type="logical" name="LDIAG"> T  </i>
     <i type="logical" name="LSUBROT"> F  </i>
     <i name="WEIMIN">      0.00100000</i>
     <i name="EBREAK">      0.00000000</i>
     <i name="DEPER">      0.30000000</i>
     <i type="int" name="NRMM">     4</i>
     <i name="TIME">      0.40000000</i>
    </separator>
   </separator>
   <separator name="electronic mixer" >
    <i name="AMIX">      0.40000000</i>
    <i name="BMIX">      1.00000000</i>
    <i name="AMIN">      0.10000000</i>
    <i name="AMIX_MAG">      1.60000000</i>
    <i name="BMIX_MAG">      1.00000000</i>
    <separator name="electronic mixer details" >
     <i type="int" name="IMIX">     4</i>
     <i type="logical" name="MIXFIRST"> F  </i>
     <i type="int" name="MAXMIX">   -45</i>
     <i name="WC">    100.00000000</i>
     <i type="int" name="INIMIX">     1</i>
     <i type="int" name="MIXPRE">     1</i>
     <i type="int" name="MREMOVE">     5</i>
    </separator>
   </separator>
   <separator name="electronic dipolcorrection" >
    <i type="logical" name="LDIPOL"> F  </i>
    <i type="logical" name="LMONO"> F  </i>
    <i type="int" name="IDIPOL">     0</i>
    <i name="EPSILON">      1.00000000</i>
    <v name="DIPOL">   -100.00000000   -100.00000000   -100.00000000</v>
    <i name="EFIELD">      0.00000000</i>
   </separator>
  </separator>
  <separator name="grids" >
   <i type="int" name="NGX">    28</i>
   <i type="int" name="NGY">    28</i>
   <i type="int" name="NGZ">    28</i>
   <i type="int" name="NGXF">    56</i>
   <i type="int" name="NGYF">    56</i>
   <i type="int" name="NGZF">    56</i>
   <i type="logical" name="ADDGRID"> F  </i>
  </separator>
  <separator name="ionic" >
   <i type="int" name="NSW">    30</i>
   <i type="int" name="IBRION">     2</i>
   <i type="int" name="ISIF">     2</i>
   <i name="PSTRESS">      0.00000000</i>
   <i name="EDIFFG">      0.00000010</i>
   <i type="int" name="NFREE">     1</i>
   <i name="POTIM">      0.50000000</i>
   <i name="SMASS">     -3.00000000</i>
   <i name="SCALEE">      1.00000000</i>
  </separator>
  <separator name="ionic md" >
   <i name="TEBEG">      0.00010000</i>
   <i name="TEEND">      0.00010000</i>
   <i type="int" name="NBLOCK">     1</i>
   <i type="int" name="KBLOCK">    30</i>
   <i type="int" name="NPACO">   256</i>
   <i name="APACO">     16.00000000</i>
  </separator>
  <separator name="symmetry" >
   <i type="int" name="ISYM">     2</i>
   <i name="SYMPREC">      0.00001000</i>
  </separator>
  <separator name="dos" >
   <i type="logical" name="LORBIT"> T  </i>
   <v name="RWIGS">     -1.00000000     -1.00000000</v>
   <i type="int" name="NEDOS">   301</i>
   <i name="EMIN">     10.00000000</i>
   <i name="EMAX">    -10.00000000</i>
   <i name="EFERMI">      0.00000000</i>
  </separator>
  <separator name="writing" >
   <i type="int" name="NWRITE">     2</i>
   <i type="logical" name="LWAVE"> F  </i>
   <i type="logical" name="LCHARG"> F  </i>
   <i type="logical" name="LPARD"> F  </i>
   <i type="logical" name="LVTOT"> F  </i>
   <i type="logical" name="LVHAR"> F  </i>
   <i type="logical" name="LELF"> F  </i>
   <i type="logical" name="LOPTICS"> F  </i>
   <v name="STM">      0.00000000      0.00000000      0.00000000      0.00000000      0.00000000      0.00000000      0.00000000</v>
  </separator>
  <separator name="performance" >
   <i type="int" name="NPAR">     4</i>
   <i type="int" name="NSIM">     4</i>
   <i type="int" name="NBLK">    -1</i>
   <i type="logical" name="LPLANE"> T  </i>
   <i type="logical" name="LSCALAPACK"> T  </i>
   <i type="logical" name="LSCAAWARE"> F  </i>
   <i type="logical" name="LSCALU"> F  </i>
   <i type="logical" name="LASYNC"> F  </i>
   <i type="logical" name="LORBITALREAL"> F  </i>
  </separator>
  <separator name="miscellaneous" >
   <i type="int" name="IDIOT">     3</i>
   <i type="logical" name="LMUSIC"> F  </i>
   <v name="POMASS">     24.30500000     16.00000000</v>
   <v name="DARWINR">      0.00000000      0.00000000</v>
   <v name="DARWINV">      1.00000000      1.00000000</v>
   <i type="logical" name="LCORR"> T  </i>
  </separator>
  <i type="logical" name="GGA_COMPAT"> T  </i>
  <i type="logical" name="LBERRY"> F  </i>
  <i type="int" name="ICORELEVEL">     0</i>
  <i type="logical" name="LDAU"> F  </i>
  <i type="int" name="I_CONSTRAINED_M">     0</i>
  <separator name="electronic exchange-correlation" >
   <i type="string" name="GGA">PE</i>
   <i type="int" name="VOSKOWN">     0</i>
   <i type="logical" name="LHFCALC"> F  </i>
   <i type="string" name="PRECFOCK"></i>
   <i type="logical" name="LSYMGRAD"> F  </i>
   <i type="logical" name="LHFONE"> F  </i>
   <i type="logical" name="LRHFCALC"> F  </i>
   <i type="logical" name="LTHOMAS"> F  </i>
   <i type="logical" name="LMODELHF"> F  </i>
   <i name="ENCUT4O">     -1.00000000</i>
   <i type="int" name="EXXOEP">     0</i>
   <i type="int" name="FOURORBIT">     0</i>
   <i name="AEXX">      0.00000000</i>
   <i name="HFALPHA">      0.00000000</i>
   <i name="MCALPHA">      0.00000000</i>
   <i name="ALDAX">      1.00000000</i>
   <i name="AGGAX">      1.00000000</i>
   <i name="ALDAC">      1.00000000</i>
   <i name="AGGAC">      1.00000000</i>
   <i type="int" name="NKREDX">     1</i>
   <i type="int" name="NKREDY">     1</i>
   <i type="int" name="NKREDZ">     1</i>
   <i type="logical" name="SHIFTRED"> F  </i>
   <i type="logical" name="ODDONLY"> F  </i>
   <i type="logical" name="EVENONLY"> F  </i>
   <i type="int" name="LMAXFOCK">     0</i>
   <i type="int" name="NMAXFOCKAE">     0</i>
   <i type="logical" name="LFOCKAEDFT"> F  </i>
   <i name="HFSCREEN">      0.00000000</i>
   <i name="HFSCREENC">      0.00000000</i>
   <i type="int" name="NBANDSGWLOW">     0</i>
  </separator>
  <separator name="vdW DFT" >
   <i type="logical" name="LUSE_VDW"> F  </i>
   <i name="Zab_VDW">     -0.84910000</i>
   <i name="PARAM1">      0.12340000</i>
   <i name="PARAM2">      1.00000000</i>
   <i name="PARAM3">      0.00000000</i>
  </separator>
  <separator name="model GW" >
   <i type="int" name="MODEL_GW">     0</i>
   <i name="MODEL_EPS0">      5.44730615</i>
   <i name="MODEL_ALPHA">      1.00000000</i>
  </separator>
  <separator name="linear response parameters" >
   <i type="logical" name="LEPSILON"> F  </i>
   <i type="logical" name="LRPA"> F  </i>
   <i type="logical" name="LNABLA"> F  </i>
   <i type="logical" name="LVEL"> F  </i>
   <i type="int" name="KINTER">     0</i>
   <i name="CSHIFT">      0.10000000</i>
   <i name="OMEGAMAX">     -1.00000000</i>
   <i name="DEG_THRESHOLD">      0.00200000</i>
  </separator>
  <separator name="orbital magnetization" >
   <i type="logical" name="NUCIND"> F  </i>
   <v name="MAGPOS">      0.00000000      0.00000000      0.00000000</v>
   <i type="logical" name="LNICSALL"> T  </i>
   <i type="logical" name="ORBITALMAG"> F  </i>
   <i type="logical" name="LMAGBLOCH"> F  </i>
   <i type="logical" name="LCHIMAG"> F  </i>
   <i type="logical" name="LGAUGE"> T  </i>
   <i type="int" name="MAGATOM">     0</i>
   <v name="MAGDIPOL">      0.00000000      0.00000000      0.00000000</v>
   <v name="AVECCONST">      0.00000000      0.00000000      0.00000000</v>
  </separator>
  <separator name="response functions" >
   <i type="logical" name="LADDER"> F  </i>
   <i type="logical" name="LFXC"> F  </i>
   <i type="logical" name="LHARTREE"> T  </i>
   <i type="int" name="IBSE">     0</i>
   <v type="int" name="KPOINT">    -1     0     0     0</v>
   <i type="logical" name="LTCTE"> F  </i>
   <i type="logical" name="LTETE"> F  </i>
   <i type="logical" name="LTRIPLET"> F  </i>
   <i type="logical" name="LFXCEPS"> F  </i>
   <i type="logical" name="LFXHEG"> F  </i>
   <i type="int" name="NATURALO">     0</i>
   <i type="logical" name="L2ORDER"> F  </i>
   <i type="logical" name="LUSEW"> F  </i>
   <i name="ENCUTGW">     -2.00000000</i>
   <i name="ENCUTGWSOFT">     -2.00000000</i>
   <i name="ENCUTLF">     -1.00000000</i>
   <i type="int" name="LMAXMP2">    -1</i>
   <i name="SCISSOR">      0.00000000</i>
   <i type="int" name="NOMEGA">     0</i>
   <i type="int" name="NOMEGAR">     0</i>
   <i type="int" name="NBANDSGW">    -1</i>
   <i type="int" name="NBANDSO">    -1</i>
   <i type="int" name="NBANDSV">    -1</i>
   <i type="int" name="NELM">     1</i>
   <i type="int" name="NELMHF">     1</i>
   <i type="int" name="DIM">     3</i>
   <i type="int" name="ANTIRES">     0</i>
   <i name="OMEGAMAX">    -30.00000000</i>
   <i name="OMEGAMIN">    -30.00000000</i>
   <i name="OMEGATL">   -200.00000000</i>
   <i type="int" name="OMEGAGRID">     0</i>
   <i name="CSHIFT">     -0.10000000</i>
   <i type="logical" name="SELFENERGY"> F  </i>
   <i type="logical" name="LSPECTRAL"> F  </i>
   <i type="logical" name="LSPECTRALGW"> F  </i>
   <i type="logical" name="LSINGLES"> F  </i>
   <i type="logical" name="LFERMIGW"> F  </i>
   <i type="logical" name="ODDONLYGW"> F  </i>
   <i type="logical" name="EVENONLYGW"> F  </i>
   <i type="int" name="NKREDLFX">     1</i>
   <i type="int" name="NKREDLFY">     1</i>
   <i type="int" name="NKREDLFZ">     1</i>
   <i type="int" name="MAXMEM">  1800</i>
   <i type="int" name="TELESCOPE">     0</i>
   <i type="int" name="TAUPAR">     1</i>
   <i type="int" name="OMEGAPAR">    -1</i>
   <i name="LAMBDA">      1.00000000</i>
  </separator>
  <separator name="External order field" >
   <i name="OFIELD_KAPPA">      0.00000000</i>
   <v name="OFIELD_K">      0.00000000      0.00000000      0.00000000</v>
   <i name="OFIELD_Q6_NEAR">      0.00000000</i>
   <i name="OFIELD_Q6_FAR">      0.00000000</i>
   <i name="OFIELD_A">      0.00000000</i>
  </separator>
 </parameters>
 <atominfo>
  <atoms>       8 </atoms>
  <types>       2 </types>
  <array name="atoms" >
   <dimension dim="1">ion</dimension>
   <field type="string">element</field>
   <field type="int">atomtype</field>
   <set>
    <rc><c>Mg</c><c>   1</c></rc>
    <rc><c>Mg</c><c>   1</c></rc>
    <rc><c>Mg</c><c>   1</c></rc>
    <rc><c>Mg</c><c>   1</c></rc>
    <rc><c>O </c><c>   2</c></rc>
    <rc><c>O </c><c>   2</c></rc>
    <rc><c>O </c><c>   2</c></rc>
    <rc><c>O </c><c>   2</c></rc>
   </set>
  </array>
  <array name="atomtypes" >
   <dimension dim="1">type</dimension>
   <field type="int">atomspertype</field>
   <field type="string">element</field>
   <field>mass</field>
   <field>valence</field>
   <field type="string">pseudopotential</field>
   <set>
    <rc><c>   4</c><c>Mg</c><c>     24.30500000</c><c>      2.00000000</c><c>  PAW_PBE Mg 13Apr2007                  </c></rc>
    <rc><c>   4</c><c>O </c><c>     16.00000000</c><c>      6.00000000</c><c>  PAW_PBE O 08Apr2002                   </c></rc>
   </set>
  </array>
 </atominfo>
 <structure name="initialpos" >
  <crystal>
   <varray name="basis" >
    <v>       4.11646307       0.00000000       0.00000000 </v>
    <v>       0.00000000       4.20047253       0.00000000 </v>
    <v>       0.00000000       0.00000000       4.20047253 </v>
   </varray>
   <i name="volume">     72.63074868 </i>
   <varray name="rec_basis" >
    <v>       0.24292699       0.00000000       0.00000000 </v>
    <v>       0.00000000       0.23806845       0.00000000 </v>
    <v>       0.00000000       0.00000000       0.23806845 </v>
   </varray>
  </crystal>
  <varray name="positions" >
   <v>       0.00000000       0.00000000       0.00000000 </v>
   <v>       0.00000000       0.50000000       0.50000000 </v>
   <v>       0.50000000       0.00000000       0.50000000 </v>
   <v>       0.50000000       0.50000000       0.00000000 </v>
   <v>       0.50000000       0.50000000       0.50000000 </v>
   <v>       0.50000000       0.00000000       0.00000000 </v>
   <v>       0.00000000       0.50000000       0.00000000 </v>
   <v>       0.00000000       0.00000000       0.50000000 </v>
  </varray>
 </structure>
 <calculation>
  <scstep>
   <time name="dav">    0.54    0.55</time>
   <time name="total">    0.62    0.62</time>
   <energy>
    <i name="alphaZ">     80.47180119 </i>
    <i name="ewald">  -1446.29359382 </i>
    <i name="hartreedc">   -477.82906464 </i>
    <i name="XCdc">    -81.37272095 </i>
    <i name="pawpsdc">   1647.42468863 </i>
    <i name="pawaedc">  -1447.16842517 </i>
    <i name="eentropy">      0.00181486 </i>
    <i name="bandstr">     14.87287444 </i>
    <i name="atom">   1821.19987801 </i>
    <i name="e_fr_energy">    111.30725256 </i>
    <i name="e_wo_entrp">    111.30543770 </i>
    <i name="e_0_energy">    111.30664761 </i>
   </energy>
  </scstep>
  <scstep>
   <time name="dav">    0.71    0.71</time>
   <time name="total">    0.71    0.72</time>
   <energy>
    <i name="e_fr_energy">    -47.53812031 </i>
    <i name="e_wo_entrp">    -47.53855186 </i>
    <i name="e_0_energy">    -47.53826416 </i>
   </energy>
  </scstep>
  <scstep>
   <time name="dav">    0.64    0.65</time>
   <time name="total">    0.65    0.65</time>
   <energy>
    <i name="e_fr_energy">    -53.72233324 </i>
    <i name="e_wo_entrp">    -53.72842800 </i>
    <i name="e_0_energy">    -53.72436482 </i>
   </energy>
  </scstep>
  <scstep>
   <time name="dav">    0.55    0.55</time>
   <time name="total">    0.55    0.55</time>
   <energy>
    <i name="e_fr_energy">    -53.74913425 </i>
    <i name="e_wo_entrp">    -53.75547016 </i>
    <i name="e_0_energy">    -53.75124622 </i>
   </energy>
  </scstep>
  <scstep>
   <time name="dav">    0.62    0.62</time>
   <time name="total">    0.72    0.73</time>
   <energy>
    <i name="e_fr_energy">    -53.74927569 </i>
    <i name="e_wo_entrp">    -53.75561413 </i>
    <i name="e_0_energy">    -53.75138850 </i>
   </energy>
  </scstep>
  <scstep>
   <time name="diag">    0.06    0.06</time>
   <time name="diis">    0.33    0.33</time>
   <time name="orth">    0.00    0.00</time>
   <time name="total">    0.55    0.56</time>
   <energy>
    <i name="e_fr_energy">    -47.70455441 </i>
    <i name="e_wo_entrp">    -47.70641298 </i>
    <i name="e_0_energy">    -47.70517393 </i>
   </energy>
  </scstep>
  <scstep>
   <time name="diag">    0.06    0.06</time>
   <time name="diis">    0.32    0.33</time>
   <time name="orth">    0.00    0.00</time>
   <time name="total">    0.55    0.55</time>
   <energy>
    <i name="e_fr_energy">    -47.62811374 </i>
    <i name="e_wo_entrp">    -47.62996421 </i>
    <i name="e_0_energy">    -47.62873056 </i>
   </energy>
  </scstep>
  <scstep>
   <time name="diag">    0.06    0.06</time>
   <time name="diis">    0.33    0.33</time>
   <time name="orth">    0.00    0.00</time>
   <time name="total">    0.55    0.55</time>
   <energy>
    <i name="e_fr_energy">    -47.60938004 </i>
    <i name="e_wo_entrp">    -47.61127262 </i>
    <i name="e_0_energy">    -47.61001090 </i>
   </energy>
  </scstep>
  <scstep>
   <time name="diag">    0.06    0.06</time>
   <time name="diis">    0.32    0.33</time>
   <time name="orth">    0.00    0.00</time>
   <time name="total">    0.55    0.55</time>
   <energy>
    <i name="e_fr_energy">    -47.60957520 </i>
    <i name="e_wo_entrp">    -47.61140571 </i>
    <i name="e_0_energy">    -47.61018537 </i>
   </energy>
  </scstep>
  <scstep>
   <time name="diag">    0.06    0.06</time>
   <time name="diis">    0.32    0.33</time>
   <time name="orth">    0.01    0.00</time>
   <time name="total">    0.55    0.55</time>
   <energy>
    <i name="e_fr_energy">    -47.60622750 </i>
    <i name="e_wo_entrp">    -47.60808054 </i>
    <i name="e_0_energy">    -47.60684518 </i>
   </energy>
  </scstep>
  <scstep>
   <time name="diag">    0.06    0.06</time>
   <time name="diis">    0.32    0.32</time>
   <time name="orth">    0.00    0.00</time>
   <time name="total">    0.55    0.55</time>
   <energy>
    <i name="e_fr_energy">    -47.60612022 </i>
    <i name="e_wo_entrp">    -47.60797882 </i>
    <i name="e_0_energy">    -47.60673976 </i>
   </energy>
  </scstep>
  <scstep>
   <time name="diag">    0.06    0.06</time>
   <time name="diis">    0.32    0.32</time>
   <time name="orth">    0.00    0.00</time>
   <time name="total">    0.54    0.55</time>
   <energy>
    <i name="e_fr_energy">    -47.60612018 </i>
    <i name="e_wo_entrp">    -47.60797798 </i>
    <i name="e_0_energy">    -47.60673944 </i>
   </energy>
  </scstep>
  <scstep>
   <time name="diag">    0.06    0.06</time>
   <time name="diis">    0.32    0.32</time>
   <time name="orth">    0.00    0.00</time>
   <time name="total">    0.55    0.55</time>
   <energy>
    <i name="e_fr_energy">    -47.60612027 </i>
    <i name="e_wo_entrp">    -47.60797835 </i>
    <i name="e_0_energy">    -47.60673963 </i>
   </energy>
  </scstep>
  <scstep>
   <time name="diag">    0.06    0.06</time>
   <time name="diis">    0.23    0.23</time>
   <time name="orth">    0.00    0.00</time>
   <time name="total">    0.46    0.46</time>
   <energy>
    <i name="e_fr_energy">    -47.60612028 </i>
    <i name="e_wo_entrp">    -47.60797833 </i>
    <i name="e_0_energy">    -47.60673963 </i>
   </energy>
  </scstep>
  <scstep>
   <time name="diag">    0.06    0.06</time>
   <time name="diis">    0.32    0.32</time>
   <time name="orth">    0.00    0.00</time>
   <time name="total">    0.54    0.55</time>
   <energy>
    <i name="e_fr_energy">    -47.60612025 </i>
    <i name="e_wo_entrp">    -47.60797820 </i>
    <i name="e_0_energy">    -47.60673957 </i>
   </energy>
  </scstep>
  <scstep>
   <time name="diag">    0.06    0.06</time>
   <time name="diis">    0.22    0.22</time>
   <time name="orth">    0.00    0.00</time>
   <time name="total">    0.35    0.35</time>
   <energy>
    <i name="alphaZ">     80.47180119 </i>
    <i name="ewald">  -1446.29359382 </i>
    <i name="hartreedc">   -557.85739496 </i>
    <i name="XCdc">    -75.11932842 </i>
    <i name="pawpsdc">   2262.17753541 </i>
    <i name="pawaedc">  -2063.05463508 </i>
    <i name="eentropy">      0.00185796 </i>
    <i name="bandstr">    -69.13224054 </i>
    <i name="atom">   1821.19987801 </i>
    <i name="e_fr_energy">    -47.60612025 </i>
    <i name="e_wo_entrp">    -47.60797821 </i>
    <i name="e_0_energy">    -47.60673957 </i>
   </energy>
  </scstep>
  <structure>
   <crystal>
    <varray name="basis" >
     <v>       4.11646307       0.00000000       0.00000000 </v>
     <v>       0.00000000       4.20047253       0.00000000 </v>
     <v>       0.00000000       0.00000000       4.20047253 </v>
    </varray>
    <i name="volume">     72.63074868 </i>
    <varray name="rec_basis" >
     <v>       0.24292699       0.00000000       0.00000000 </v>
     <v>       0.00000000       0.23806845       0.00000000 </v>
     <v>       0.00000000       0.00000000       0.23806845 </v>
    </varray>
   </crystal>
   <varray name="positions" >
    <v>       0.00000000       0.00000000       0.00000000 </v>
    <v>       0.00000000       0.50000000       0.50000000 </v>
    <v>       0.50000000       0.00000000       0.50000000 </v>
    <v>       0.50000000       0.50000000       0.00000000 </v>
    <v>       0.50000000       0.50000000       0.50000000 </v>
    <v>       0.50000000       0.00000000       0.00000000 </v>
    <v>       0.00000000       0.50000000       0.00000000 </v>
    <v>       0.00000000       0.00000000       0.50000000 </v>
   </varray>
  </structure>
  <varray name="forces" >
   <v>       0.00000000      -0.00000000      -0.00000000 </v>
   <v>       0.00000000       0.00000000       0.00000000 </v>
   <v>       0.00000000      -0.00000000      -0.00000000 </v>
   <v>       0.00000000      -0.00000000      -0.00000000 </v>
   <v>       0.00000000       0.00000000       0.00000000 </v>
   <v>       0.00000000      -0.00000000       0.00000000 </v>
   <v>       0.00000000      -0.00000000      -0.00000000 </v>
   <v>      -0.00000000      -0.00000000       0.00000000 </v>
  </varray>
  <varray name="stress" >
   <v>      74.00943940      -0.00000000       0.00000000 </v>
   <v>      -0.00000000      22.08605361       0.00000000 </v>
   <v>       0.00000000       0.00000000      22.08605361 </v>
  </varray>
  <energy>
   <i name="e_fr_energy">    -47.60612025 </i>
   <i name="e_wo_entrp">    -47.60673957 </i>
   <i name="e_0_energy">      0.00185796 </i>
  </energy>
  <time name="totalsc">   10.18   10.26</time>
  <eigenvalues>
   <array>
    <dimension dim="1">band</dimension>
    <dimension dim="2">kpoint</dimension>
    <dimension dim="3">spin</dimension>
    <field>eigene</field>
    <field>occ</field>
    <set>
     <set comment="spin 1">
      <set comment="kpoint 1">
       <r>  -14.0153    1.0000 </r>
       <r>  -12.4127    1.0000 </r>
       <r>  -12.4127    1.0000 </r>
       <r>  -12.3530    1.0000 </r>
       <r>   -0.8327    1.0000 </r>
       <r>   -0.8327    1.0000 </r>
       <r>   -0.7487    1.0000 </r>
       <r>    1.9456    1.0000 </r>
       <r>    1.9456    1.0000 </r>
       <r>    1.9713    1.0000 </r>
       <r>    1.9713    1.0000 </r>
       <r>    2.0966    1.0000 </r>
       <r>    2.0966    1.0000 </r>
       <r>    3.3586    1.0235 </r>
       <r>    3.4036    0.9790 </r>
       <r>    3.4036    0.9790 </r>
       <r>    8.4056   -0.0000 </r>
       <r>   12.4221    0.0000 </r>
       <r>   12.6396    0.0000 </r>
       <r>   12.6396    0.0000 </r>
       <r>   13.6729    0.0000 </r>
       <r>   13.7018    0.0000 </r>
       <r>   13.7018    0.0000 </r>
       <r>   16.7292    0.0000 </r>
      </set>
      <set comment="kpoint 2">
       <r>  -13.6133    1.0000 </r>
       <r>  -12.7806    1.0000 </r>
       <r>  -12.3618    1.0000 </r>
       <r>  -12.3618    1.0000 </r>
       <r>   -0.2747    1.0000 </r>
       <r>   -0.2747    1.0000 </r>
       <r>   -0.1130    1.0000 </r>
       <r>    1.1323    1.0000 </r>
       <r>    1.1323    1.0000 </r>
       <r>    1.6180    1.0000 </r>
       <r>    1.6180    1.0000 </r>
       <r>    1.7636    1.0000 </r>
       <r>    2.2618    1.0000 </r>
       <r>    2.2618    1.0000 </r>
       <r>    2.9805    1.0002 </r>
       <r>    2.9805    1.0002 </r>
       <r>   10.3101    0.0000 </r>
       <r>   13.0027    0.0000 </r>
       <r>   13.3823    0.0000 </r>
       <r>   14.1440    0.0000 </r>
       <r>   14.1440    0.0000 </r>
       <r>   15.1913    0.0000 </r>
       <r>   16.1081    0.0000 </r>
       <r>   16.1159    0.0000 </r>
      </set>
      <set comment="kpoint 3">
       <r>  -13.6336    1.0000 </r>
       <r>  -12.8305    1.0000 </r>
       <r>  -12.3561    1.0000 </r>
       <r>  -12.3271    1.0000 </r>
       <r>   -0.2974    1.0000 </r>
       <r>   -0.2250    1.0000 </r>
       <r>   -0.1357    1.0000 </r>
       <r>    1.0374    1.0000 </r>
       <r>    1.0857    1.0000 </r>
       <r>    1.6689    1.0000 </r>
       <r>    1.7428    1.0000 </r>
       <r>    1.7934    1.0000 </r>
       <r>    2.2746    1.0000 </r>
       <r>    2.3855    1.0000 </r>
       <r>    2.9612    1.0001 </r>
       <r>    3.0297    1.0006 </r>
       <r>   10.3151    0.0000 </r>
       <r>   13.0096    0.0000 </r>
       <r>   13.5568    0.0000 </r>
       <r>   13.9406    0.0000 </r>
       <r>   14.1655    0.0000 </r>
       <r>   15.1264    0.0000 </r>
       <r>   15.1735    0.0000 </r>
       <r>   16.0534    0.0000 </r>
      </set>
      <set comment="kpoint 4">
       <r>  -13.2933    1.0000 </r>
       <r>  -12.6637    1.0000 </r>
       <r>  -12.6362    1.0000 </r>
       <r>  -12.4227    1.0000 </r>
       <r>   -0.2473    1.0000 </r>
       <r>   -0.2445    1.0000 </r>
       <r>    0.0740    1.0000 </r>
       <r>    0.2251    1.0000 </r>
       <r>    0.6948    1.0000 </r>
       <r>    1.4524    1.0000 </r>
       <r>    1.5229    1.0000 </r>
       <r>    2.3106    1.0000 </r>
       <r>    2.3504    1.0000 </r>
       <r>    2.3759    1.0000 </r>
       <r>    2.4364    1.0000 </r>
       <r>    3.0594    1.0013 </r>
       <r>   11.3679    0.0000 </r>
       <r>   13.7006    0.0000 </r>
       <r>   13.7225    0.0000 </r>
       <r>   13.9467    0.0000 </r>
       <r>   14.5037    0.0000 </r>
       <r>   14.6482    0.0000 </r>
       <r>   15.7351    0.0000 </r>
       <r>   15.7927    0.0000 </r>
      </set>
      <set comment="kpoint 5">
       <r>  -13.3093    1.0000 </r>
       <r>  -12.6675    1.0000 </r>
       <r>  -12.6675    1.0000 </r>
       <r>  -12.4132    1.0000 </r>
       <r>   -0.2089    1.0000 </r>
       <r>   -0.2089    1.0000 </r>
       <r>    0.1028    1.0000 </r>
       <r>    0.2657    1.0000 </r>
       <r>    0.7677    1.0000 </r>
       <r>    1.4793    1.0000 </r>
       <r>    1.4793    1.0000 </r>
       <r>    2.3153    1.0000 </r>
       <r>    2.3574    1.0000 </r>
       <r>    2.3574    1.0000 </r>
       <r>    2.4033    1.0000 </r>
       <r>    3.0550    1.0011 </r>
       <r>   11.3775    0.0000 </r>
       <r>   13.6836    0.0000 </r>
       <r>   13.6836    0.0000 </r>
       <r>   13.7987    0.0000 </r>
       <r>   14.7095    0.0000 </r>
       <r>   14.7095    0.0000 </r>
       <r>   15.8615    0.0000 </r>
       <r>   16.0098    0.0000 </r>
      </set>
      <set comment="kpoint 6">
       <r>  -13.0466    1.0000 </r>
       <r>  -12.6046    1.0000 </r>
       <r>  -12.6046    1.0000 </r>
       <r>  -12.5911    1.0000 </r>
       <r>   -0.8926    1.0000 </r>
       <r>   -0.8794    1.0000 </r>
       <r>   -0.8794    1.0000 </r>
       <r>   -0.3609    1.0000 </r>
       <r>    1.8894    1.0000 </r>
       <r>    1.8894    1.0000 </r>
       <r>    1.9343    1.0000 </r>
       <r>    2.4839    1.0000 </r>
       <r>    2.5343    1.0000 </r>
       <r>    2.5343    1.0000 </r>
       <r>    2.8519    1.0000 </r>
       <r>    2.8820    1.0000 </r>
       <r>   11.2989    0.0000 </r>
       <r>   12.5735    0.0000 </r>
       <r>   12.6092    0.0000 </r>
       <r>   12.6092    0.0000 </r>
       <r>   15.8664    0.0000 </r>
       <r>   15.9218    0.0000 </r>
       <r>   15.9218    0.0000 </r>
       <r>   15.9865    0.0000 </r>
      </set>
     </set>
    </set>
   </array>
  </eigenvalues>
  <separator name="orbital magnetization" >
   <v name="MAGDIPOLOUT">      0.00000000      0.00000000      0.00000000</v>
  </separator>
  <dos>
   <i name="efermi">      3.55556281 </i>
   <total>
    <array>
     <dimension dim="1">gridpoints</dimension>
     <dimension dim="2">spin</dimension>
     <field>energy</field>
     <field>total</field>
     <field>integrated</field>
     <set>
      <set comment="spin 1">
       <r>   -16.0153     0.0000     0.0000 </r>
       <r>   -15.8995     0.0000     0.0000 </r>
       <r>   -15.7837     0.0000     0.0000 </r>
       <r>   -15.6678    -0.0000    -0.0000 </r>
       <r>   -15.5520    -0.0000    -0.0000 </r>
       <r>   -15.4362    -0.0000    -0.0000 </r>
       <r>   -15.3204    -0.0000    -0.0000 </r>
       <r>   -15.2046    -0.0000    -0.0000 </r>
       <r>   -15.0888    -0.0000    -0.0000 </r>
       <r>   -14.9729    -0.0000    -0.0000 </r>
       <r>   -14.8571    -0.0000    -0.0000 </r>
       <r>   -14.7413    -0.0000    -0.0000 </r>
       <r>   -14.6255    -0.0000    -0.0000 </r>
       <r>   -14.5097    -0.0008    -0.0001 </r>
       <r>   -14.3939    -0.0063    -0.0008 </r>
       <r>   -14.2781    -0.0150    -0.0026 </r>
       <r>   -14.1622     0.0383     0.0019 </r>
       <r>   -14.0464     0.1980     0.0248 </r>
       <r>   -13.9306     0.2104     0.0492 </r>
       <r>   -13.8148     0.1601     0.0677 </r>
       <r>   -13.6990     0.8402     0.1650 </r>
       <r>   -13.5832     1.5857     0.3487 </r>
       <r>   -13.4674     1.3949     0.5102 </r>
       <r>   -13.3515     2.2460     0.7704 </r>
       <r>   -13.2357     3.5096     1.1768 </r>
       <r>   -13.1199     3.0023     1.5245 </r>
       <r>   -13.0041     2.2337     1.7832 </r>
       <r>   -12.8883     1.6764     1.9774 </r>
       <r>   -12.7725     4.0689     2.4486 </r>
       <r>   -12.6566    11.1939     3.7450 </r>
       <r>   -12.5408    14.6588     5.4428 </r>
       <r>   -12.4250    11.3936     6.7623 </r>
       <r>   -12.3092     7.6556     7.6489 </r>
       <r>   -12.1934     3.3282     8.0344 </r>
       <r>   -12.0776     0.1534     8.0522 </r>
       <r>   -11.9618    -0.3409     8.0127 </r>
       <r>   -11.8459    -0.0982     8.0013 </r>
       <r>   -11.7301    -0.0107     8.0001 </r>
       <r>   -11.6143    -0.0005     8.0000 </r>
       <r>   -11.4985    -0.0000     8.0000 </r>
       <r>   -11.3827    -0.0000     8.0000 </r>
       <r>   -11.2669    -0.0000     8.0000 </r>
       <r>   -11.1511    -0.0000     8.0000 </r>
       <r>   -11.0352    -0.0000     8.0000 </r>
       <r>   -10.9194     0.0000     8.0000 </r>
       <r>   -10.8036     0.0000     8.0000 </r>
       <r>   -10.6878     0.0000     8.0000 </r>
       <r>   -10.5720     0.0000     8.0000 </r>
       <r>   -10.4562     0.0000     8.0000 </r>
       <r>   -10.3403     0.0000     8.0000 </r>
       <r>   -10.2245     0.0000     8.0000 </r>
       <r>   -10.1087     0.0000     8.0000 </r>
       <r>    -9.9929     0.0000     8.0000 </r>
       <r>    -9.8771     0.0000     8.0000 </r>
       <r>    -9.7613     0.0000     8.0000 </r>
       <r>    -9.6455     0.0000     8.0000 </r>
       <r>    -9.5296     0.0000     8.0000 </r>
       <r>    -9.4138     0.0000     8.0000 </r>
       <r>    -9.2980     0.0000     8.0000 </r>
       <r>    -9.1822     0.0000     8.0000 </r>
       <r>    -9.0664     0.0000     8.0000 </r>
       <r>    -8.9506     0.0000     8.0000 </r>
       <r>    -8.8348     0.0000     8.0000 </r>
       <r>    -8.7189     0.0000     8.0000 </r>
       <r>    -8.6031     0.0000     8.0000 </r>
       <r>    -8.4873     0.0000     8.0000 </r>
       <r>    -8.3715     0.0000     8.0000 </r>
       <r>    -8.2557     0.0000     8.0000 </r>
       <r>    -8.1399     0.0000     8.0000 </r>
       <r>    -8.0240     0.0000     8.0000 </r>
       <r>    -7.9082     0.0000     8.0000 </r>
       <r>    -7.7924     0.0000     8.0000 </r>
       <r>    -7.6766     0.0000     8.0000 </r>
       <r>    -7.5608     0.0000     8.0000 </r>
       <r>    -7.4450     0.0000     8.0000 </r>
       <r>    -7.3292     0.0000     8.0000 </r>
       <r>    -7.2133     0.0000     8.0000 </r>
       <r>    -7.0975     0.0000     8.0000 </r>
       <r>    -6.9817     0.0000     8.0000 </r>
       <r>    -6.8659     0.0000     8.0000 </r>
       <r>    -6.7501     0.0000     8.0000 </r>
       <r>    -6.6343     0.0000     8.0000 </r>
       <r>    -6.5185     0.0000     8.0000 </r>
       <r>    -6.4026     0.0000     8.0000 </r>
       <r>    -6.2868     0.0000     8.0000 </r>
       <r>    -6.1710     0.0000     8.0000 </r>
       <r>    -6.0552     0.0000     8.0000 </r>
       <r>    -5.9394     0.0000     8.0000 </r>
       <r>    -5.8236     0.0000     8.0000 </r>
       <r>    -5.7078     0.0000     8.0000 </r>
       <r>    -5.5919     0.0000     8.0000 </r>
       <r>    -5.4761     0.0000     8.0000 </r>
       <r>    -5.3603     0.0000     8.0000 </r>
       <r>    -5.2445     0.0000     8.0000 </r>
       <r>    -5.1287     0.0000     8.0000 </r>
       <r>    -5.0129     0.0000     8.0000 </r>
       <r>    -4.8970     0.0000     8.0000 </r>
       <r>    -4.7812     0.0000     8.0000 </r>
       <r>    -4.6654     0.0000     8.0000 </r>
       <r>    -4.5496     0.0000     8.0000 </r>
       <r>    -4.4338     0.0000     8.0000 </r>
       <r>    -4.3180     0.0000     8.0000 </r>
       <r>    -4.2022     0.0000     8.0000 </r>
       <r>    -4.0863     0.0000     8.0000 </r>
       <r>    -3.9705     0.0000     8.0000 </r>
       <r>    -3.8547     0.0000     8.0000 </r>
       <r>    -3.7389     0.0000     8.0000 </r>
       <r>    -3.6231     0.0000     8.0000 </r>
       <r>    -3.5073     0.0000     8.0000 </r>
       <r>    -3.3915     0.0000     8.0000 </r>
       <r>    -3.2756     0.0000     8.0000 </r>
       <r>    -3.1598     0.0000     8.0000 </r>
       <r>    -3.0440     0.0000     8.0000 </r>
       <r>    -2.9282     0.0000     8.0000 </r>
       <r>    -2.8124     0.0000     8.0000 </r>
       <r>    -2.6966     0.0000     8.0000 </r>
       <r>    -2.5807    -0.0000     8.0000 </r>
       <r>    -2.4649    -0.0000     8.0000 </r>
       <r>    -2.3491    -0.0000     8.0000 </r>
       <r>    -2.2333    -0.0000     8.0000 </r>
       <r>    -2.1175    -0.0000     8.0000 </r>
       <r>    -2.0017    -0.0000     8.0000 </r>
       <r>    -1.8859    -0.0000     8.0000 </r>
       <r>    -1.7700    -0.0000     8.0000 </r>
       <r>    -1.6542    -0.0000     8.0000 </r>
       <r>    -1.5384    -0.0003     8.0000 </r>
       <r>    -1.4226    -0.0071     7.9991 </r>
       <r>    -1.3068    -0.0790     7.9900 </r>
       <r>    -1.1910    -0.3343     7.9513 </r>
       <r>    -1.0752     0.0590     7.9581 </r>
       <r>    -0.9593     3.5671     8.3712 </r>
       <r>    -0.8435     7.6850     9.2613 </r>
       <r>    -0.7277     5.6150     9.9116 </r>
       <r>    -0.6119     0.7850    10.0025 </r>
       <r>    -0.4961    -0.3756     9.9590 </r>
       <r>    -0.3803     3.6665    10.3836 </r>
       <r>    -0.2644    10.7407    11.6276 </r>
       <r>    -0.1486    12.0192    13.0196 </r>
       <r>    -0.0328     6.4909    13.7713 </r>
       <r>     0.0830     4.0160    14.2364 </r>
       <r>     0.1988     5.1247    14.8300 </r>
       <r>     0.3146     4.2581    15.3231 </r>
       <r>     0.4304     1.4077    15.4861 </r>
       <r>     0.5463     0.2220    15.5119 </r>
       <r>     0.6621     1.8876    15.7305 </r>
       <r>     0.7779     3.2454    16.1063 </r>
       <r>     0.8937     2.1759    16.3583 </r>
       <r>     1.0095     1.9708    16.5866 </r>
       <r>     1.1253     2.9987    16.9339 </r>
       <r>     1.2411     2.0304    17.1690 </r>
       <r>     1.3570     1.9324    17.3928 </r>
       <r>     1.4728     5.6148    18.0431 </r>
       <r>     1.5886     7.6067    18.9241 </r>
       <r>     1.7044     6.3586    19.6605 </r>
       <r>     1.8202     7.4292    20.5209 </r>
       <r>     1.9360     9.2996    21.5980 </r>
       <r>     2.0519     6.0522    22.2989 </r>
       <r>     2.1677     2.8860    22.6331 </r>
       <r>     2.2835     8.8895    23.6627 </r>
       <r>     2.3993    17.9399    25.7404 </r>
       <r>     2.5151    17.2216    27.7349 </r>
       <r>     2.6309     8.3016    28.6964 </r>
       <r>     2.7467     2.3221    28.9653 </r>
       <r>     2.8626     4.3502    29.4691 </r>
       <r>     2.9784     8.4953    30.4530 </r>
       <r>     3.0942     8.0449    31.3847 </r>
       <r>     3.2100     3.6158    31.8035 </r>
       <r>     3.3258     0.7026    31.8848 </r>
       <r>     3.4416     0.5506    31.9486 </r>
       <r>     3.5574     0.4474    32.0004 </r>
       <r>     3.6733     0.0553    32.0068 </r>
       <r>     3.7891    -0.0430    32.0018 </r>
       <r>     3.9049    -0.0142    32.0002 </r>
       <r>     4.0207    -0.0016    32.0000 </r>
       <r>     4.1365    -0.0001    32.0000 </r>
       <r>     4.2523    -0.0000    32.0000 </r>
       <r>     4.3682    -0.0000    32.0000 </r>
       <r>     4.4840    -0.0000    32.0000 </r>
       <r>     4.5998    -0.0000    32.0000 </r>
       <r>     4.7156    -0.0000    32.0000 </r>
       <r>     4.8314     0.0000    32.0000 </r>
       <r>     4.9472     0.0000    32.0000 </r>
       <r>     5.0630     0.0000    32.0000 </r>
       <r>     5.1789     0.0000    32.0000 </r>
       <r>     5.2947     0.0000    32.0000 </r>
       <r>     5.4105     0.0000    32.0000 </r>
       <r>     5.5263     0.0000    32.0000 </r>
       <r>     5.6421     0.0000    32.0000 </r>
       <r>     5.7579     0.0000    32.0000 </r>
       <r>     5.8737     0.0000    32.0000 </r>
       <r>     5.9896     0.0000    32.0000 </r>
       <r>     6.1054     0.0000    32.0000 </r>
       <r>     6.2212     0.0000    32.0000 </r>
       <r>     6.3370     0.0000    32.0000 </r>
       <r>     6.4528     0.0000    32.0000 </r>
       <r>     6.5686     0.0000    32.0000 </r>
       <r>     6.6844     0.0000    32.0000 </r>
       <r>     6.8003    -0.0000    32.0000 </r>
       <r>     6.9161    -0.0000    32.0000 </r>
       <r>     7.0319    -0.0000    32.0000 </r>
       <r>     7.1477    -0.0000    32.0000 </r>
       <r>     7.2635    -0.0000    32.0000 </r>
       <r>     7.3793    -0.0000    32.0000 </r>
       <r>     7.4952    -0.0000    32.0000 </r>
       <r>     7.6110    -0.0000    32.0000 </r>
       <r>     7.7268    -0.0000    32.0000 </r>
       <r>     7.8426    -0.0002    32.0000 </r>
       <r>     7.9584    -0.0021    31.9997 </r>
       <r>     8.0742    -0.0109    31.9985 </r>
       <r>     8.1900    -0.0070    31.9977 </r>
       <r>     8.3059     0.1036    32.0097 </r>
       <r>     8.4217     0.2796    32.0420 </r>
       <r>     8.5375     0.2413    32.0700 </r>
       <r>     8.6533     0.0579    32.0767 </r>
       <r>     8.7691    -0.0139    32.0751 </r>
       <r>     8.8849    -0.0076    32.0742 </r>
       <r>     9.0007    -0.0011    32.0741 </r>
       <r>     9.1166    -0.0001    32.0741 </r>
       <r>     9.2324    -0.0000    32.0741 </r>
       <r>     9.3482    -0.0000    32.0741 </r>
       <r>     9.4640    -0.0000    32.0741 </r>
       <r>     9.5798    -0.0000    32.0741 </r>
       <r>     9.6956    -0.0002    32.0740 </r>
       <r>     9.8115    -0.0040    32.0736 </r>
       <r>     9.9273    -0.0339    32.0697 </r>
       <r>    10.0431    -0.0899    32.0592 </r>
       <r>    10.1589     0.1945    32.0818 </r>
       <r>    10.2747     1.2363    32.2250 </r>
       <r>    10.3905     1.7702    32.4300 </r>
       <r>    10.5063     0.8451    32.5278 </r>
       <r>    10.6222     0.0179    32.5299 </r>
       <r>    10.7380    -0.0799    32.5207 </r>
       <r>    10.8538    -0.0414    32.5159 </r>
       <r>    10.9696    -0.1443    32.4992 </r>
       <r>    11.0854    -0.2257    32.4730 </r>
       <r>    11.2012     1.0804    32.5982 </r>
       <r>    11.3170     4.4157    33.1096 </r>
       <r>    11.4329     5.4925    33.7457 </r>
       <r>    11.5487     2.4465    34.0290 </r>
       <r>    11.6645     0.0411    34.0338 </r>
       <r>    11.7803    -0.2299    34.0071 </r>
       <r>    11.8961    -0.0566    34.0006 </r>
       <r>    12.0119    -0.0116    33.9992 </r>
       <r>    12.1278    -0.0491    33.9936 </r>
       <r>    12.2436    -0.2051    33.9698 </r>
       <r>    12.3594    -0.1415    33.9534 </r>
       <r>    12.4752     2.0762    34.1939 </r>
       <r>    12.5910     6.5989    34.9581 </r>
       <r>    12.7068     6.9498    35.7630 </r>
       <r>    12.8226     2.5069    36.0533 </r>
       <r>    12.9385     0.7254    36.1374 </r>
       <r>    13.0543     1.4960    36.3106 </r>
       <r>    13.1701     1.0597    36.4334 </r>
       <r>    13.2859     0.2001    36.4565 </r>
       <r>    13.4017     0.2140    36.4813 </r>
       <r>    13.5175     1.4385    36.6479 </r>
       <r>    13.6333     5.4545    37.2796 </r>
       <r>    13.7492     9.2482    38.3507 </r>
       <r>    13.8650     7.8442    39.2592 </r>
       <r>    13.9808     4.9127    39.8281 </r>
       <r>    14.0966     3.5102    40.2347 </r>
       <r>    14.2124     2.4719    40.5210 </r>
       <r>    14.3282     1.1512    40.6543 </r>
       <r>    14.4441     1.2833    40.8029 </r>
       <r>    14.5599     3.5460    41.2136 </r>
       <r>    14.6757     5.3907    41.8379 </r>
       <r>    14.7915     4.1909    42.3233 </r>
       <r>    14.9073     1.1759    42.4595 </r>
       <r>    15.0231     0.4292    42.5092 </r>
       <r>    15.1389     2.1649    42.7599 </r>
       <r>    15.2548     2.7139    43.0742 </r>
       <r>    15.3706     1.0114    43.1913 </r>
       <r>    15.4864    -0.3698    43.1485 </r>
       <r>    15.6022    -0.0665    43.1408 </r>
       <r>    15.7180     3.2613    43.5185 </r>
       <r>    15.8338     9.4329    44.6110 </r>
       <r>    15.9496    13.4163    46.1648 </r>
       <r>    16.0655    10.7233    47.4067 </r>
       <r>    16.1813     4.4722    47.9246 </r>
       <r>    16.2971     0.5065    47.9833 </r>
       <r>    16.4129    -0.3403    47.9439 </r>
       <r>    16.5287    -0.1459    47.9270 </r>
       <r>    16.6445     0.1044    47.9391 </r>
       <r>    16.7604     0.2893    47.9726 </r>
       <r>    16.8762     0.2183    47.9979 </r>
       <r>    16.9920     0.0403    48.0025 </r>
       <r>    17.1078    -0.0149    48.0008 </r>
       <r>    17.2236    -0.0063    48.0001 </r>
       <r>    17.3394    -0.0008    48.0000 </r>
       <r>    17.4552    -0.0000    48.0000 </r>
       <r>    17.5711    -0.0000    48.0000 </r>
       <r>    17.6869    -0.0000    48.0000 </r>
       <r>    17.8027    -0.0000    48.0000 </r>
       <r>    17.9185    -0.0000    48.0000 </r>
       <r>    18.0343    -0.0000    48.0000 </r>
       <r>    18.1501     0.0000    48.0000 </r>
       <r>    18.2659     0.0000    48.0000 </r>
       <r>    18.3818     0.0000    48.0000 </r>
       <r>    18.4976     0.0000    48.0000 </r>
       <r>    18.6134     0.0000    48.0000 </r>
       <r>    18.7292     0.0000    48.0000 </r>
      </set>
     </set>
    </array>
   </total>
  </dos>
 </calculation>
 <structure name="finalpos" >
  <crystal>
   <varray name="basis" >
    <v>       4.11646307       0.00000000       0.00000000 </v>
    <v>       0.00000000       4.20047253       0.00000000 </v>
    <v>       0.00000000       0.00000000       4.20047253 </v>
   </varray>
   <i name="volume">     72.63074868 </i>
   <varray name="rec_basis" >
    <v>       0.24292699       0.00000000       0.00000000 </v>
    <v>       0.00000000       0.23806845       0.00000000 </v>
    <v>       0.00000000       0.00000000       0.23806845 </v>
   </varray>
  </crystal>
  <varray name="positions" >
   <v>       0.00000000       0.00000000       0.00000000 </v>
   <v>       0.00000000       0.50000000       0.50000000 </v>
   <v>       0.50000000       0.00000000       0.50000000 </v>
   <v>       0.50000000       0.50000000       0.00000000 </v>
   <v>       0.50000000       0.50000000       0.50000000 </v>
   <v>       0.50000000       0.00000000       0.00000000 </v>
   <v>       0.00000000       0.50000000       0.00000000 </v>
   <v>       0.00000000       0.00000000       0.50000000 </v>
  </varray>
 </structure>
</modeling>
