<?xml version="1.0" encoding="ISO-8859-1"?>
<modeling>
 <generator>
  <i name="program" type="string">vasp </i>
  <i name="version" type="string">5.4.1  </i>
  <i name="subversion" type="string">24Jun15 (build Oct  9 2015 14:58:31) complex                          parallel </i>
  <i name="platform" type="string">IFC91_ompi </i>
  <i name="date" type="string">2017 09 13 </i>
  <i name="time" type="string">11:30:35 </i>
 </generator>
 <incar>
  <i type="string" name="PREC">accurate</i>
  <i type="string" name="ALGO"> Fast</i>
  <i type="int" name="IBRION">     2</i>
  <i name="EDIFF">      0.00000001</i>
  <i type="int" name="NSW">    30</i>
  <i type="int" name="ISIF">     2</i>
  <i type="string" name="LREAL"> A</i>
  <i type="logical" name="LWAVE"> F  </i>
  <i type="logical" name="LCHARG"> F  </i>
  <v type="int" name="KPOINT_BSE">    -1     0     0     0</v>
  <i type="string" name="GGA"> PE</i>
 </incar>
 <kpoints>
  <generation param="Monkhorst-Pack">
   <v type="int" name="divisions">       3        3        3 </v>
   <v name="usershift">      0.00000000       0.00000000       0.00000000 </v>
   <v name="genvec1">      0.33333333       0.00000000       0.00000000 </v>
   <v name="genvec2">      0.00000000       0.33333333       0.00000000 </v>
   <v name="genvec3">      0.00000000       0.00000000       0.33333333 </v>
   <v name="shift">      0.00000000       0.00000000       0.00000000 </v>
  </generation>
  <varray name="kpointlist" >
   <v>       0.00000000       0.00000000       0.00000000 </v>
   <v>       0.33333333       0.00000000       0.00000000 </v>
   <v>       0.33333333       0.33333333       0.00000000 </v>
   <v>       0.33333333       0.33333333       0.33333333 </v>
  </varray>
  <varray name="weights" >
   <v>       0.03703704 </v>
   <v>       0.22222222 </v>
   <v>       0.44444444 </v>
   <v>       0.29629630 </v>
  </varray>
 </kpoints>
 <parameters>
  <separator name="general" >
   <i type="string" name="SYSTEM">unknown system</i>
   <i type="logical" name="LCOMPAT"> F  </i>
  </separator>
  <separator name="electronic" >
   <i type="string" name="PREC">accura</i>
   <i name="ENMAX">    400.00000000</i>
   <i name="ENAUG">    605.39200000</i>
   <i name="EDIFF">      0.00000001</i>
   <i type="int" name="IALGO">    68</i>
   <i type="int" name="IWAVPR">    11</i>
   <i type="int" name="NBANDS">    24</i>
   <i name="NELECT">     32.00000000</i>
   <i type="int" name="TURBO">     0</i>
   <i type="int" name="IRESTART">     0</i>
   <i type="int" name="NREBOOT">     0</i>
   <i type="int" name="NMIN">     0</i>
   <i name="EREF">      0.00000000</i>
   <separator name="electronic smearing" >
    <i type="int" name="ISMEAR">     1</i>
    <i name="SIGMA">      0.20000000</i>
    <i name="KSPACING">      0.50000000</i>
    <i type="logical" name="KGAMMA"> T  </i>
   </separator>
   <separator name="electronic projectors" >
    <i type="logical" name="LREAL"> T  </i>
    <v name="ROPT">     -0.00025000     -0.00025000</v>
    <i type="int" name="LMAXPAW">  -100</i>
    <i type="int" name="LMAXMIX">     2</i>
    <i type="logical" name="NLSPLINE"> F  </i>
   </separator>
   <separator name="electronic startup" >
    <i type="int" name="ISTART">     0</i>
    <i type="int" name="ICHARG">     2</i>
    <i type="int" name="INIWAV">     1</i>
   </separator>
   <separator name="electronic spin" >
    <i type="int" name="ISPIN">     1</i>
    <i type="logical" name="LNONCOLLINEAR"> F  </i>
    <v name="MAGMOM">      1.00000000      1.00000000      1.00000000      1.00000000      1.00000000      1.00000000      1.00000000      1.00000000</v>
    <i name="NUPDOWN">     -1.00000000</i>
    <i type="logical" name="LSORBIT"> F  </i>
    <v name="SAXIS">      0.00000000      0.00000000      1.00000000</v>
    <i type="logical" name="LSPIRAL"> F  </i>
    <v name="QSPIRAL">      0.00000000      0.00000000      0.00000000</v>
    <i type="logical" name="LZEROZ"> F  </i>
   </separator>
   <separator name="electronic exchange-correlation" >
    <i type="logical" name="LASPH"> F  </i>
    <i type="logical" name="LMETAGGA"> F  </i>
   </separator>
   <separator name="electronic convergence" >
    <i type="int" name="NELM">    60</i>
    <i type="int" name="NELMDL">     0</i>
    <i type="int" name="NELMIN">     2</i>
    <i name="ENINI">    400.00000000</i>
    <separator name="electronic convergence detail" >
     <i type="logical" name="LDIAG"> T  </i>
     <i type="logical" name="LSUBROT"> F  </i>
     <i name="WEIMIN">      0.00100000</i>
     <i name="EBREAK">      0.00000000</i>
     <i name="DEPER">      0.30000000</i>
     <i type="int" name="NRMM">     4</i>
     <i name="TIME">      0.40000000</i>
    </separator>
   </separator>
   <separator name="electronic mixer" >
    <i name="AMIX">      0.40000000</i>
    <i name="BMIX">      1.00000000</i>
    <i name="AMIN">      0.10000000</i>
    <i name="AMIX_MAG">      1.60000000</i>
    <i name="BMIX_MAG">      1.00000000</i>
    <separator name="electronic mixer details" >
     <i type="int" name="IMIX">     4</i>
     <i type="logical" name="MIXFIRST"> F  </i>
     <i type="int" name="MAXMIX">   -45</i>
     <i name="WC">    100.00000000</i>
     <i type="int" name="INIMIX">     1</i>
     <i type="int" name="MIXPRE">     1</i>
     <i type="int" name="MREMOVE">     5</i>
    </separator>
   </separator>
   <separator name="electronic dipolcorrection" >
    <i type="logical" name="LDIPOL"> F  </i>
    <i type="logical" name="LMONO"> F  </i>
    <i type="int" name="IDIPOL">     0</i>
    <i name="EPSILON">      1.00000000</i>
    <v name="DIPOL">   -100.00000000   -100.00000000   -100.00000000</v>
    <i name="EFIELD">      0.00000000</i>
   </separator>
  </separator>
  <separator name="grids" >
   <i type="int" name="NGX">    28</i>
   <i type="int" name="NGY">    28</i>
   <i type="int" name="NGZ">    28</i>
   <i type="int" name="NGXF">    56</i>
   <i type="int" name="NGYF">    56</i>
   <i type="int" name="NGZF">    56</i>
   <i type="logical" name="ADDGRID"> F  </i>
  </separator>
  <separator name="ionic" >
   <i type="int" name="NSW">    30</i>
   <i type="int" name="IBRION">     2</i>
   <i type="int" name="ISIF">     2</i>
   <i name="PSTRESS">      0.00000000</i>
   <i name="EDIFFG">      0.00000010</i>
   <i type="int" name="NFREE">     1</i>
   <i name="POTIM">      0.50000000</i>
   <i name="SMASS">     -3.00000000</i>
   <i name="SCALEE">      1.00000000</i>
  </separator>
  <separator name="ionic md" >
   <i name="TEBEG">      0.00010000</i>
   <i name="TEEND">      0.00010000</i>
   <i type="int" name="NBLOCK">     1</i>
   <i type="int" name="KBLOCK">    30</i>
   <i type="int" name="NPACO">   256</i>
   <i name="APACO">     16.00000000</i>
  </separator>
  <separator name="symmetry" >
   <i type="int" name="ISYM">     2</i>
   <i name="SYMPREC">      0.00001000</i>
  </separator>
  <separator name="dos" >
   <i type="logical" name="LORBIT"> T  </i>
   <v name="RWIGS">     -1.00000000     -1.00000000</v>
   <i type="int" name="NEDOS">   301</i>
   <i name="EMIN">     10.00000000</i>
   <i name="EMAX">    -10.00000000</i>
   <i name="EFERMI">      0.00000000</i>
  </separator>
  <separator name="writing" >
   <i type="int" name="NWRITE">     2</i>
   <i type="logical" name="LWAVE"> F  </i>
   <i type="logical" name="LCHARG"> F  </i>
   <i type="logical" name="LPARD"> F  </i>
   <i type="logical" name="LVTOT"> F  </i>
   <i type="logical" name="LVHAR"> F  </i>
   <i type="logical" name="LELF"> F  </i>
   <i type="logical" name="LOPTICS"> F  </i>
   <v name="STM">      0.00000000      0.00000000      0.00000000      0.00000000      0.00000000      0.00000000      0.00000000</v>
  </separator>
  <separator name="performance" >
   <i type="int" name="NPAR">     4</i>
   <i type="int" name="NSIM">     4</i>
   <i type="int" name="NBLK">    -1</i>
   <i type="logical" name="LPLANE"> T  </i>
   <i type="logical" name="LSCALAPACK"> T  </i>
   <i type="logical" name="LSCAAWARE"> F  </i>
   <i type="logical" name="LSCALU"> F  </i>
   <i type="logical" name="LASYNC"> F  </i>
   <i type="logical" name="LORBITALREAL"> F  </i>
  </separator>
  <separator name="miscellaneous" >
   <i type="int" name="IDIOT">     3</i>
   <i type="logical" name="LMUSIC"> F  </i>
   <v name="POMASS">     24.30500000     16.00000000</v>
   <v name="DARWINR">      0.00000000      0.00000000</v>
   <v name="DARWINV">      1.00000000      1.00000000</v>
   <i type="logical" name="LCORR"> T  </i>
  </separator>
  <i type="logical" name="GGA_COMPAT"> T  </i>
  <i type="logical" name="LBERRY"> F  </i>
  <i type="int" name="ICORELEVEL">     0</i>
  <i type="logical" name="LDAU"> F  </i>
  <i type="int" name="I_CONSTRAINED_M">     0</i>
  <separator name="electronic exchange-correlation" >
   <i type="string" name="GGA">PE</i>
   <i type="int" name="VOSKOWN">     0</i>
   <i type="logical" name="LHFCALC"> F  </i>
   <i type="string" name="PRECFOCK"></i>
   <i type="logical" name="LSYMGRAD"> F  </i>
   <i type="logical" name="LHFONE"> F  </i>
   <i type="logical" name="LRHFCALC"> F  </i>
   <i type="logical" name="LTHOMAS"> F  </i>
   <i type="logical" name="LMODELHF"> F  </i>
   <i name="ENCUT4O">     -1.00000000</i>
   <i type="int" name="EXXOEP">     0</i>
   <i type="int" name="FOURORBIT">     0</i>
   <i name="AEXX">      0.00000000</i>
   <i name="HFALPHA">      0.00000000</i>
   <i name="MCALPHA">      0.00000000</i>
   <i name="ALDAX">      1.00000000</i>
   <i name="AGGAX">      1.00000000</i>
   <i name="ALDAC">      1.00000000</i>
   <i name="AGGAC">      1.00000000</i>
   <i type="int" name="NKREDX">     1</i>
   <i type="int" name="NKREDY">     1</i>
   <i type="int" name="NKREDZ">     1</i>
   <i type="logical" name="SHIFTRED"> F  </i>
   <i type="logical" name="ODDONLY"> F  </i>
   <i type="logical" name="EVENONLY"> F  </i>
   <i type="int" name="LMAXFOCK">     0</i>
   <i type="int" name="NMAXFOCKAE">     0</i>
   <i type="logical" name="LFOCKAEDFT"> F  </i>
   <i name="HFSCREEN">      0.00000000</i>
   <i name="HFSCREENC">      0.00000000</i>
   <i type="int" name="NBANDSGWLOW">     0</i>
  </separator>
  <separator name="vdW DFT" >
   <i type="logical" name="LUSE_VDW"> F  </i>
   <i name="Zab_VDW">     -0.84910000</i>
   <i name="PARAM1">      0.12340000</i>
   <i name="PARAM2">      1.00000000</i>
   <i name="PARAM3">      0.00000000</i>
  </separator>
  <separator name="model GW" >
   <i type="int" name="MODEL_GW">     0</i>
   <i name="MODEL_EPS0">      5.61406042</i>
   <i name="MODEL_ALPHA">      1.00000000</i>
  </separator>
  <separator name="linear response parameters" >
   <i type="logical" name="LEPSILON"> F  </i>
   <i type="logical" name="LRPA"> F  </i>
   <i type="logical" name="LNABLA"> F  </i>
   <i type="logical" name="LVEL"> F  </i>
   <i type="int" name="KINTER">     0</i>
   <i name="CSHIFT">      0.10000000</i>
   <i name="OMEGAMAX">     -1.00000000</i>
   <i name="DEG_THRESHOLD">      0.00200000</i>
  </separator>
  <separator name="orbital magnetization" >
   <i type="logical" name="NUCIND"> F  </i>
   <v name="MAGPOS">      0.00000000      0.00000000      0.00000000</v>
   <i type="logical" name="LNICSALL"> T  </i>
   <i type="logical" name="ORBITALMAG"> F  </i>
   <i type="logical" name="LMAGBLOCH"> F  </i>
   <i type="logical" name="LCHIMAG"> F  </i>
   <i type="logical" name="LGAUGE"> T  </i>
   <i type="int" name="MAGATOM">     0</i>
   <v name="MAGDIPOL">      0.00000000      0.00000000      0.00000000</v>
   <v name="AVECCONST">      0.00000000      0.00000000      0.00000000</v>
  </separator>
  <separator name="response functions" >
   <i type="logical" name="LADDER"> F  </i>
   <i type="logical" name="LFXC"> F  </i>
   <i type="logical" name="LHARTREE"> T  </i>
   <i type="int" name="IBSE">     0</i>
   <v type="int" name="KPOINT">    -1     0     0     0</v>
   <i type="logical" name="LTCTE"> F  </i>
   <i type="logical" name="LTETE"> F  </i>
   <i type="logical" name="LTRIPLET"> F  </i>
   <i type="logical" name="LFXCEPS"> F  </i>
   <i type="logical" name="LFXHEG"> F  </i>
   <i type="int" name="NATURALO">     0</i>
   <i type="logical" name="L2ORDER"> F  </i>
   <i type="logical" name="LUSEW"> F  </i>
   <i name="ENCUTGW">     -2.00000000</i>
   <i name="ENCUTGWSOFT">     -2.00000000</i>
   <i name="ENCUTLF">     -1.00000000</i>
   <i type="int" name="LMAXMP2">    -1</i>
   <i name="SCISSOR">      0.00000000</i>
   <i type="int" name="NOMEGA">     0</i>
   <i type="int" name="NOMEGAR">     0</i>
   <i type="int" name="NBANDSGW">    -1</i>
   <i type="int" name="NBANDSO">    -1</i>
   <i type="int" name="NBANDSV">    -1</i>
   <i type="int" name="NELM">     1</i>
   <i type="int" name="NELMHF">     1</i>
   <i type="int" name="DIM">     3</i>
   <i type="int" name="ANTIRES">     0</i>
   <i name="OMEGAMAX">    -30.00000000</i>
   <i name="OMEGAMIN">    -30.00000000</i>
   <i name="OMEGATL">   -200.00000000</i>
   <i type="int" name="OMEGAGRID">     0</i>
   <i name="CSHIFT">     -0.10000000</i>
   <i type="logical" name="SELFENERGY"> F  </i>
   <i type="logical" name="LSPECTRAL"> F  </i>
   <i type="logical" name="LSPECTRALGW"> F  </i>
   <i type="logical" name="LSINGLES"> F  </i>
   <i type="logical" name="LFERMIGW"> F  </i>
   <i type="logical" name="ODDONLYGW"> F  </i>
   <i type="logical" name="EVENONLYGW"> F  </i>
   <i type="int" name="NKREDLFX">     1</i>
   <i type="int" name="NKREDLFY">     1</i>
   <i type="int" name="NKREDLFZ">     1</i>
   <i type="int" name="MAXMEM">  1800</i>
   <i type="int" name="TELESCOPE">     0</i>
   <i type="int" name="TAUPAR">     1</i>
   <i type="int" name="OMEGAPAR">    -1</i>
   <i name="LAMBDA">      1.00000000</i>
  </separator>
  <separator name="External order field" >
   <i name="OFIELD_KAPPA">      0.00000000</i>
   <v name="OFIELD_K">      0.00000000      0.00000000      0.00000000</v>
   <i name="OFIELD_Q6_NEAR">      0.00000000</i>
   <i name="OFIELD_Q6_FAR">      0.00000000</i>
   <i name="OFIELD_A">      0.00000000</i>
  </separator>
 </parameters>
 <atominfo>
  <atoms>       8 </atoms>
  <types>       2 </types>
  <array name="atoms" >
   <dimension dim="1">ion</dimension>
   <field type="string">element</field>
   <field type="int">atomtype</field>
   <set>
    <rc><c>Mg</c><c>   1</c></rc>
    <rc><c>Mg</c><c>   1</c></rc>
    <rc><c>Mg</c><c>   1</c></rc>
    <rc><c>Mg</c><c>   1</c></rc>
    <rc><c>O </c><c>   2</c></rc>
    <rc><c>O </c><c>   2</c></rc>
    <rc><c>O </c><c>   2</c></rc>
    <rc><c>O </c><c>   2</c></rc>
   </set>
  </array>
  <array name="atomtypes" >
   <dimension dim="1">type</dimension>
   <field type="int">atomspertype</field>
   <field type="string">element</field>
   <field>mass</field>
   <field>valence</field>
   <field type="string">pseudopotential</field>
   <set>
    <rc><c>   4</c><c>Mg</c><c>     24.30500000</c><c>      2.00000000</c><c>  PAW_PBE Mg 13Apr2007                  </c></rc>
    <rc><c>   4</c><c>O </c><c>     16.00000000</c><c>      6.00000000</c><c>  PAW_PBE O 08Apr2002                   </c></rc>
   </set>
  </array>
 </atominfo>
 <structure name="initialpos" >
  <crystal>
   <varray name="basis" >
    <v>       4.21442769       0.00000000       0.00000000 </v>
    <v>       0.00000000       4.21442769       0.00000000 </v>
    <v>       0.00000000       0.00000000       4.21442769 </v>
   </varray>
   <i name="volume">     74.85413894 </i>
   <varray name="rec_basis" >
    <v>       0.23728014       0.00000000       0.00000000 </v>
    <v>       0.00000000       0.23728014       0.00000000 </v>
    <v>       0.00000000       0.00000000       0.23728014 </v>
   </varray>
  </crystal>
  <varray name="positions" >
   <v>       0.00000000       0.00000000       0.00000000 </v>
   <v>       0.00000000       0.50000000       0.50000000 </v>
   <v>       0.50000000       0.00000000       0.50000000 </v>
   <v>       0.50000000       0.50000000       0.00000000 </v>
   <v>       0.50000000       0.50000000       0.50000000 </v>
   <v>       0.50000000       0.00000000       0.00000000 </v>
   <v>       0.00000000       0.50000000       0.00000000 </v>
   <v>       0.00000000       0.00000000       0.50000000 </v>
  </varray>
 </structure>
 <calculation>
  <scstep>
   <time name="dav">    0.36    0.36</time>
   <time name="total">    0.43    0.43</time>
   <energy>
    <i name="alphaZ">     78.08154967 </i>
    <i name="ewald">  -1431.96085557 </i>
    <i name="hartreedc">   -484.62849722 </i>
    <i name="XCdc">    -81.74649228 </i>
    <i name="pawpsdc">   1647.42468863 </i>
    <i name="pawaedc">  -1447.16842517 </i>
    <i name="eentropy">      0.00045529 </i>
    <i name="bandstr">     -8.87729770 </i>
    <i name="atom">   1821.19987801 </i>
    <i name="e_fr_energy">     92.32500366 </i>
    <i name="e_wo_entrp">     92.32454837 </i>
    <i name="e_0_energy">     92.32485190 </i>
   </energy>
  </scstep>
  <scstep>
   <time name="dav">    0.44    0.45</time>
   <time name="total">    0.45    0.45</time>
   <energy>
    <i name="e_fr_energy">    -48.08861131 </i>
    <i name="e_wo_entrp">    -48.08904169 </i>
    <i name="e_0_energy">    -48.08875477 </i>
   </energy>
  </scstep>
  <scstep>
   <time name="dav">    0.40    0.40</time>
   <time name="total">    0.40    0.40</time>
   <energy>
    <i name="e_fr_energy">    -53.79605589 </i>
    <i name="e_wo_entrp">    -53.80437467 </i>
    <i name="e_0_energy">    -53.79882882 </i>
   </energy>
  </scstep>
  <scstep>
   <time name="dav">    0.35    0.36</time>
   <time name="total">    0.36    0.36</time>
   <energy>
    <i name="e_fr_energy">    -53.82137358 </i>
    <i name="e_wo_entrp">    -53.82987755 </i>
    <i name="e_0_energy">    -53.82420824 </i>
   </energy>
  </scstep>
  <scstep>
   <time name="dav">    0.38    0.39</time>
   <time name="total">    0.49    0.50</time>
   <energy>
    <i name="e_fr_energy">    -53.82154164 </i>
    <i name="e_wo_entrp">    -53.83005077 </i>
    <i name="e_0_energy">    -53.82437802 </i>
   </energy>
  </scstep>
  <scstep>
   <time name="diag">    0.04    0.04</time>
   <time name="diis">    0.20    0.21</time>
   <time name="orth">    0.00    0.00</time>
   <time name="total">    0.41    0.41</time>
   <energy>
    <i name="e_fr_energy">    -47.81645625 </i>
    <i name="e_wo_entrp">    -47.81849421 </i>
    <i name="e_0_energy">    -47.81713557 </i>
   </energy>
  </scstep>
  <scstep>
   <time name="diag">    0.04    0.04</time>
   <time name="diis">    0.21    0.21</time>
   <time name="orth">    0.00    0.00</time>
   <time name="total">    0.41    0.42</time>
   <energy>
    <i name="e_fr_energy">    -47.73722079 </i>
    <i name="e_wo_entrp">    -47.73925959 </i>
    <i name="e_0_energy">    -47.73790039 </i>
   </energy>
  </scstep>
  <scstep>
   <time name="diag">    0.04    0.04</time>
   <time name="diis">    0.21    0.21</time>
   <time name="orth">    0.00    0.00</time>
   <time name="total">    0.42    0.42</time>
   <energy>
    <i name="e_fr_energy">    -47.71794010 </i>
    <i name="e_wo_entrp">    -47.72003398 </i>
    <i name="e_0_energy">    -47.71863806 </i>
   </energy>
  </scstep>
  <scstep>
   <time name="diag">    0.04    0.04</time>
   <time name="diis">    0.22    0.21</time>
   <time name="orth">    0.00    0.00</time>
   <time name="total">    0.42    0.42</time>
   <energy>
    <i name="e_fr_energy">    -47.71821686 </i>
    <i name="e_wo_entrp">    -47.72022008 </i>
    <i name="e_0_energy">    -47.71888460 </i>
   </energy>
  </scstep>
  <scstep>
   <time name="diag">    0.04    0.04</time>
   <time name="diis">    0.20    0.21</time>
   <time name="orth">    0.00    0.00</time>
   <time name="total">    0.41    0.42</time>
   <energy>
    <i name="e_fr_energy">    -47.71401931 </i>
    <i name="e_wo_entrp">    -47.71605593 </i>
    <i name="e_0_energy">    -47.71469818 </i>
   </energy>
  </scstep>
  <scstep>
   <time name="diag">    0.04    0.04</time>
   <time name="diis">    0.21    0.21</time>
   <time name="orth">    0.00    0.00</time>
   <time name="total">    0.42    0.42</time>
   <energy>
    <i name="e_fr_energy">    -47.71388124 </i>
    <i name="e_wo_entrp">    -47.71592598 </i>
    <i name="e_0_energy">    -47.71456282 </i>
   </energy>
  </scstep>
  <scstep>
   <time name="diag">    0.04    0.04</time>
   <time name="diis">    0.21    0.21</time>
   <time name="orth">    0.00    0.00</time>
   <time name="total">    0.42    0.42</time>
   <energy>
    <i name="e_fr_energy">    -47.71388201 </i>
    <i name="e_wo_entrp">    -47.71592568 </i>
    <i name="e_0_energy">    -47.71456323 </i>
   </energy>
  </scstep>
  <scstep>
   <time name="diag">    0.04    0.04</time>
   <time name="diis">    0.21    0.21</time>
   <time name="orth">    0.00    0.00</time>
   <time name="total">    0.42    0.42</time>
   <energy>
    <i name="e_fr_energy">    -47.71388209 </i>
    <i name="e_wo_entrp">    -47.71592623 </i>
    <i name="e_0_energy">    -47.71456347 </i>
   </energy>
  </scstep>
  <scstep>
   <time name="diag">    0.04    0.04</time>
   <time name="diis">    0.15    0.15</time>
   <time name="orth">    0.00    0.00</time>
   <time name="total">    0.26    0.26</time>
   <energy>
    <i name="alphaZ">     78.08154967 </i>
    <i name="ewald">  -1431.96085557 </i>
    <i name="hartreedc">   -564.40545918 </i>
    <i name="XCdc">    -75.55369967 </i>
    <i name="pawpsdc">   2240.02086348 </i>
    <i name="pawaedc">  -2040.83855595 </i>
    <i name="eentropy">      0.00204409 </i>
    <i name="bandstr">    -74.25964696 </i>
    <i name="atom">   1821.19987801 </i>
    <i name="e_fr_energy">    -47.71388208 </i>
    <i name="e_wo_entrp">    -47.71592617 </i>
    <i name="e_0_energy">    -47.71456344 </i>
   </energy>
  </scstep>
  <structure>
   <crystal>
    <varray name="basis" >
     <v>       4.21442769       0.00000000       0.00000000 </v>
     <v>       0.00000000       4.21442769       0.00000000 </v>
     <v>       0.00000000       0.00000000       4.21442769 </v>
    </varray>
    <i name="volume">     74.85413894 </i>
    <varray name="rec_basis" >
     <v>       0.23728014       0.00000000       0.00000000 </v>
     <v>       0.00000000       0.23728014       0.00000000 </v>
     <v>       0.00000000       0.00000000       0.23728014 </v>
    </varray>
   </crystal>
   <varray name="positions" >
    <v>       0.00000000       0.00000000       0.00000000 </v>
    <v>       0.00000000       0.50000000       0.50000000 </v>
    <v>       0.50000000       0.00000000       0.50000000 </v>
    <v>       0.50000000       0.50000000       0.00000000 </v>
    <v>       0.50000000       0.50000000       0.50000000 </v>
    <v>       0.50000000       0.00000000       0.00000000 </v>
    <v>       0.00000000       0.50000000       0.00000000 </v>
    <v>       0.00000000       0.00000000       0.50000000 </v>
   </varray>
  </structure>
  <varray name="forces" >
   <v>      -0.00000000       0.00000000      -0.00000000 </v>
   <v>      -0.00000000       0.00000000       0.00000000 </v>
   <v>      -0.00000000       0.00000000       0.00000000 </v>
   <v>       0.00000000      -0.00000000       0.00000000 </v>
   <v>       0.00000000       0.00000000       0.00000000 </v>
   <v>       0.00000000      -0.00000000      -0.00000000 </v>
   <v>       0.00000000      -0.00000000      -0.00000000 </v>
   <v>       0.00000000      -0.00000000       0.00000000 </v>
  </varray>
  <varray name="stress" >
   <v>     -13.48887062       0.00000000      -0.00000000 </v>
   <v>      -0.00000000     -13.48887062       0.00000000 </v>
   <v>       0.00000000       0.00000000     -13.48887062 </v>
  </varray>
  <energy>
   <i name="e_fr_energy">    -47.71388208 </i>
   <i name="e_wo_entrp">    -47.71456344 </i>
   <i name="e_0_energy">      0.00204409 </i>
  </energy>
  <time name="totalsc">    6.63    6.68</time>
  <eigenvalues>
   <array>
    <dimension dim="1">band</dimension>
    <dimension dim="2">kpoint</dimension>
    <dimension dim="3">spin</dimension>
    <field>eigene</field>
    <field>occ</field>
    <set>
     <set comment="spin 1">
      <set comment="kpoint 1">
       <r>  -14.0851    1.0000 </r>
       <r>  -12.5508    1.0000 </r>
       <r>  -12.5508    1.0000 </r>
       <r>  -12.5508    1.0000 </r>
       <r>   -0.9102    1.0000 </r>
       <r>   -0.9102    1.0000 </r>
       <r>   -0.9102    1.0000 </r>
       <r>    1.8199    1.0000 </r>
       <r>    1.8199    1.0000 </r>
       <r>    1.8199    1.0000 </r>
       <r>    1.8199    1.0000 </r>
       <r>    1.8199    1.0000 </r>
       <r>    1.8199    1.0000 </r>
       <r>    3.1635    0.9908 </r>
       <r>    3.1635    0.9908 </r>
       <r>    3.1635    0.9908 </r>
       <r>    7.8823   -0.0000 </r>
       <r>   12.2999    0.0000 </r>
       <r>   12.2999    0.0000 </r>
       <r>   12.2999    0.0000 </r>
       <r>   13.1274    0.0000 </r>
       <r>   13.1274    0.0000 </r>
       <r>   13.1274    0.0000 </r>
       <r>   16.2708    0.0000 </r>
      </set>
      <set comment="kpoint 2">
       <r>  -13.7173    1.0000 </r>
       <r>  -12.9487    1.0000 </r>
       <r>  -12.5114    1.0000 </r>
       <r>  -12.5114    1.0000 </r>
       <r>   -0.3842    1.0000 </r>
       <r>   -0.3842    1.0000 </r>
       <r>   -0.2626    1.0000 </r>
       <r>    0.9307    1.0000 </r>
       <r>    0.9307    1.0000 </r>
       <r>    1.5000    1.0000 </r>
       <r>    1.5000    1.0000 </r>
       <r>    1.5824    1.0000 </r>
       <r>    2.1121    1.0000 </r>
       <r>    2.1121    1.0000 </r>
       <r>    2.7774    1.0004 </r>
       <r>    2.7774    1.0004 </r>
       <r>    9.7875    0.0000 </r>
       <r>   12.4518    0.0000 </r>
       <r>   13.2126    0.0000 </r>
       <r>   13.7276    0.0000 </r>
       <r>   13.7276    0.0000 </r>
       <r>   14.5730    0.0000 </r>
       <r>   14.6367    0.0000 </r>
       <r>   15.6547    0.0000 </r>
      </set>
      <set comment="kpoint 3">
       <r>  -13.4090    1.0000 </r>
       <r>  -12.8016    1.0000 </r>
       <r>  -12.8016    1.0000 </r>
       <r>  -12.5799    1.0000 </r>
       <r>   -0.3653    1.0000 </r>
       <r>   -0.3653    1.0000 </r>
       <r>   -0.0503    1.0000 </r>
       <r>    0.1092    1.0000 </r>
       <r>    0.5449    1.0000 </r>
       <r>    1.3193    1.0000 </r>
       <r>    1.3193    1.0000 </r>
       <r>    2.1506    1.0000 </r>
       <r>    2.1506    1.0000 </r>
       <r>    2.1672    1.0000 </r>
       <r>    2.2303    1.0000 </r>
       <r>    2.8470    1.0019 </r>
       <r>   10.8439    0.0000 </r>
       <r>   13.1665    0.0000 </r>
       <r>   13.1665    0.0000 </r>
       <r>   13.4732    0.0000 </r>
       <r>   14.2505    0.0000 </r>
       <r>   14.2505    0.0000 </r>
       <r>   15.3879    0.0000 </r>
       <r>   15.4447    0.0000 </r>
      </set>
      <set comment="kpoint 4">
       <r>  -13.1718    1.0000 </r>
       <r>  -12.7497    1.0000 </r>
       <r>  -12.7497    1.0000 </r>
       <r>  -12.7497    1.0000 </r>
       <r>   -0.9916    1.0000 </r>
       <r>   -0.9916    1.0000 </r>
       <r>   -0.9916    1.0000 </r>
       <r>   -0.4964    1.0000 </r>
       <r>    1.7330    1.0000 </r>
       <r>    1.7330    1.0000 </r>
       <r>    1.7330    1.0000 </r>
       <r>    2.3281    1.0000 </r>
       <r>    2.3281    1.0000 </r>
       <r>    2.3281    1.0000 </r>
       <r>    2.6641    1.0000 </r>
       <r>    2.6641    1.0000 </r>
       <r>   10.8291    0.0000 </r>
       <r>   12.1594    0.0000 </r>
       <r>   12.1594    0.0000 </r>
       <r>   12.1594    0.0000 </r>
       <r>   15.3805    0.0000 </r>
       <r>   15.3805    0.0000 </r>
       <r>   15.3805    0.0000 </r>
       <r>   15.4962    0.0000 </r>
      </set>
     </set>
    </set>
   </array>
  </eigenvalues>
  <separator name="orbital magnetization" >
   <v name="MAGDIPOLOUT">      0.00000000      0.00000000      0.00000000</v>
  </separator>
  <dos>
   <i name="efermi">      3.32403340 </i>
   <total>
    <array>
     <dimension dim="1">gridpoints</dimension>
     <dimension dim="2">spin</dimension>
     <field>energy</field>
     <field>total</field>
     <field>integrated</field>
     <set>
      <set comment="spin 1">
       <r>   -16.0851     0.0000     0.0000 </r>
       <r>   -15.9706     0.0000     0.0000 </r>
       <r>   -15.8560     0.0000     0.0000 </r>
       <r>   -15.7415    -0.0000    -0.0000 </r>
       <r>   -15.6270    -0.0000    -0.0000 </r>
       <r>   -15.5125    -0.0000    -0.0000 </r>
       <r>   -15.3980    -0.0000    -0.0000 </r>
       <r>   -15.2834    -0.0000    -0.0000 </r>
       <r>   -15.1689    -0.0000    -0.0000 </r>
       <r>   -15.0544    -0.0000    -0.0000 </r>
       <r>   -14.9399    -0.0000    -0.0000 </r>
       <r>   -14.8254    -0.0000    -0.0000 </r>
       <r>   -14.7108    -0.0000    -0.0000 </r>
       <r>   -14.5963    -0.0006    -0.0001 </r>
       <r>   -14.4818    -0.0049    -0.0006 </r>
       <r>   -14.3673    -0.0149    -0.0023 </r>
       <r>   -14.2528     0.0189    -0.0002 </r>
       <r>   -14.1382     0.1631     0.0185 </r>
       <r>   -14.0237     0.2191     0.0436 </r>
       <r>   -13.9092     0.1828     0.0645 </r>
       <r>   -13.7947     0.7933     0.1554 </r>
       <r>   -13.6802     1.5700     0.3352 </r>
       <r>   -13.5656     1.5833     0.5165 </r>
       <r>   -13.4511     2.5092     0.8039 </r>
       <r>   -13.3366     3.6174     1.2181 </r>
       <r>   -13.2221     3.0650     1.5691 </r>
       <r>   -13.1076     2.1166     1.8115 </r>
       <r>   -12.9930     2.0447     2.0457 </r>
       <r>   -12.8785     6.4609     2.7856 </r>
       <r>   -12.7640    13.6751     4.3516 </r>
       <r>   -12.6495    14.5145     6.0138 </r>
       <r>   -12.5350    10.4453     7.2100 </r>
       <r>   -12.4204     5.9887     7.8958 </r>
       <r>   -12.3059     1.5258     8.0706 </r>
       <r>   -12.1914    -0.3292     8.0329 </r>
       <r>   -12.0769    -0.2404     8.0053 </r>
       <r>   -11.9624    -0.0432     8.0004 </r>
       <r>   -11.8478    -0.0034     8.0000 </r>
       <r>   -11.7333    -0.0001     8.0000 </r>
       <r>   -11.6188    -0.0000     8.0000 </r>
       <r>   -11.5043    -0.0000     8.0000 </r>
       <r>   -11.3898    -0.0000     8.0000 </r>
       <r>   -11.2753    -0.0000     8.0000 </r>
       <r>   -11.1607     0.0000     8.0000 </r>
       <r>   -11.0462     0.0000     8.0000 </r>
       <r>   -10.9317     0.0000     8.0000 </r>
       <r>   -10.8172     0.0000     8.0000 </r>
       <r>   -10.7027     0.0000     8.0000 </r>
       <r>   -10.5881     0.0000     8.0000 </r>
       <r>   -10.4736     0.0000     8.0000 </r>
       <r>   -10.3591     0.0000     8.0000 </r>
       <r>   -10.2446     0.0000     8.0000 </r>
       <r>   -10.1301     0.0000     8.0000 </r>
       <r>   -10.0155     0.0000     8.0000 </r>
       <r>    -9.9010     0.0000     8.0000 </r>
       <r>    -9.7865     0.0000     8.0000 </r>
       <r>    -9.6720     0.0000     8.0000 </r>
       <r>    -9.5575     0.0000     8.0000 </r>
       <r>    -9.4429     0.0000     8.0000 </r>
       <r>    -9.3284     0.0000     8.0000 </r>
       <r>    -9.2139     0.0000     8.0000 </r>
       <r>    -9.0994     0.0000     8.0000 </r>
       <r>    -8.9849     0.0000     8.0000 </r>
       <r>    -8.8703     0.0000     8.0000 </r>
       <r>    -8.7558     0.0000     8.0000 </r>
       <r>    -8.6413     0.0000     8.0000 </r>
       <r>    -8.5268     0.0000     8.0000 </r>
       <r>    -8.4123     0.0000     8.0000 </r>
       <r>    -8.2977     0.0000     8.0000 </r>
       <r>    -8.1832     0.0000     8.0000 </r>
       <r>    -8.0687     0.0000     8.0000 </r>
       <r>    -7.9542     0.0000     8.0000 </r>
       <r>    -7.8397     0.0000     8.0000 </r>
       <r>    -7.7251     0.0000     8.0000 </r>
       <r>    -7.6106     0.0000     8.0000 </r>
       <r>    -7.4961     0.0000     8.0000 </r>
       <r>    -7.3816     0.0000     8.0000 </r>
       <r>    -7.2671     0.0000     8.0000 </r>
       <r>    -7.1525     0.0000     8.0000 </r>
       <r>    -7.0380     0.0000     8.0000 </r>
       <r>    -6.9235     0.0000     8.0000 </r>
       <r>    -6.8090     0.0000     8.0000 </r>
       <r>    -6.6945     0.0000     8.0000 </r>
       <r>    -6.5799     0.0000     8.0000 </r>
       <r>    -6.4654     0.0000     8.0000 </r>
       <r>    -6.3509     0.0000     8.0000 </r>
       <r>    -6.2364     0.0000     8.0000 </r>
       <r>    -6.1219     0.0000     8.0000 </r>
       <r>    -6.0074     0.0000     8.0000 </r>
       <r>    -5.8928     0.0000     8.0000 </r>
       <r>    -5.7783     0.0000     8.0000 </r>
       <r>    -5.6638     0.0000     8.0000 </r>
       <r>    -5.5493     0.0000     8.0000 </r>
       <r>    -5.4348     0.0000     8.0000 </r>
       <r>    -5.3202     0.0000     8.0000 </r>
       <r>    -5.2057     0.0000     8.0000 </r>
       <r>    -5.0912     0.0000     8.0000 </r>
       <r>    -4.9767     0.0000     8.0000 </r>
       <r>    -4.8622     0.0000     8.0000 </r>
       <r>    -4.7476     0.0000     8.0000 </r>
       <r>    -4.6331     0.0000     8.0000 </r>
       <r>    -4.5186     0.0000     8.0000 </r>
       <r>    -4.4041     0.0000     8.0000 </r>
       <r>    -4.2896     0.0000     8.0000 </r>
       <r>    -4.1750     0.0000     8.0000 </r>
       <r>    -4.0605     0.0000     8.0000 </r>
       <r>    -3.9460     0.0000     8.0000 </r>
       <r>    -3.8315     0.0000     8.0000 </r>
       <r>    -3.7170     0.0000     8.0000 </r>
       <r>    -3.6024     0.0000     8.0000 </r>
       <r>    -3.4879     0.0000     8.0000 </r>
       <r>    -3.3734     0.0000     8.0000 </r>
       <r>    -3.2589     0.0000     8.0000 </r>
       <r>    -3.1444     0.0000     8.0000 </r>
       <r>    -3.0298     0.0000     8.0000 </r>
       <r>    -2.9153     0.0000     8.0000 </r>
       <r>    -2.8008     0.0000     8.0000 </r>
       <r>    -2.6863    -0.0000     8.0000 </r>
       <r>    -2.5718    -0.0000     8.0000 </r>
       <r>    -2.4572    -0.0000     8.0000 </r>
       <r>    -2.3427    -0.0000     8.0000 </r>
       <r>    -2.2282    -0.0000     8.0000 </r>
       <r>    -2.1137    -0.0000     8.0000 </r>
       <r>    -1.9992    -0.0000     8.0000 </r>
       <r>    -1.8846    -0.0000     8.0000 </r>
       <r>    -1.7701    -0.0000     8.0000 </r>
       <r>    -1.6556    -0.0002     8.0000 </r>
       <r>    -1.5411    -0.0054     7.9994 </r>
       <r>    -1.4266    -0.0636     7.9921 </r>
       <r>    -1.3120    -0.3021     7.9575 </r>
       <r>    -1.1975    -0.1215     7.9436 </r>
       <r>    -1.0830     2.8780     8.2731 </r>
       <r>    -0.9685     7.3810     9.1184 </r>
       <r>    -0.8540     6.3629     9.8471 </r>
       <r>    -0.7394     1.3937    10.0067 </r>
       <r>    -0.6249    -0.3439     9.9673 </r>
       <r>    -0.5104     3.4538    10.3628 </r>
       <r>    -0.3959    10.6765    11.5855 </r>
       <r>    -0.2814    12.3681    13.0019 </r>
       <r>    -0.1669     6.7413    13.7739 </r>
       <r>    -0.0523     3.9392    14.2250 </r>
       <r>     0.0622     5.0150    14.7993 </r>
       <r>     0.1767     4.3478    15.2972 </r>
       <r>     0.2912     1.5802    15.4782 </r>
       <r>     0.4057     0.5903    15.5458 </r>
       <r>     0.5203     2.5193    15.8343 </r>
       <r>     0.6348     3.2315    16.2044 </r>
       <r>     0.7493     1.5604    16.3831 </r>
       <r>     0.8638     1.8387    16.5937 </r>
       <r>     0.9783     3.1924    16.9593 </r>
       <r>     1.0929     1.9779    17.1858 </r>
       <r>     1.2074     2.1459    17.4315 </r>
       <r>     1.3219     6.1811    18.1394 </r>
       <r>     1.4364     8.0420    19.0603 </r>
       <r>     1.5509     6.9222    19.8531 </r>
       <r>     1.6655     7.6589    20.7302 </r>
       <r>     1.7800     8.8355    21.7420 </r>
       <r>     1.8945     5.3958    22.3599 </r>
       <r>     2.0090     3.6373    22.7765 </r>
       <r>     2.1235    11.8266    24.1308 </r>
       <r>     2.2381    19.3840    26.3507 </r>
       <r>     2.3526    15.2650    28.0988 </r>
       <r>     2.4671     6.0566    28.7924 </r>
       <r>     2.5816     2.4459    29.0725 </r>
       <r>     2.6961     6.1495    29.7768 </r>
       <r>     2.8107     9.3076    30.8427 </r>
       <r>     2.9252     6.7249    31.6128 </r>
       <r>     3.0397     2.1292    31.8566 </r>
       <r>     3.1542     0.5111    31.9152 </r>
       <r>     3.2687     0.5707    31.9805 </r>
       <r>     3.3833     0.2377    32.0078 </r>
       <r>     3.4978    -0.0291    32.0044 </r>
       <r>     3.6123    -0.0321    32.0007 </r>
       <r>     3.7268    -0.0060    32.0001 </r>
       <r>     3.8413    -0.0005    32.0000 </r>
       <r>     3.9559    -0.0000    32.0000 </r>
       <r>     4.0704    -0.0000    32.0000 </r>
       <r>     4.1849    -0.0000    32.0000 </r>
       <r>     4.2994    -0.0000    32.0000 </r>
       <r>     4.4139    -0.0000    32.0000 </r>
       <r>     4.5285     0.0000    32.0000 </r>
       <r>     4.6430     0.0000    32.0000 </r>
       <r>     4.7575     0.0000    32.0000 </r>
       <r>     4.8720     0.0000    32.0000 </r>
       <r>     4.9865     0.0000    32.0000 </r>
       <r>     5.1010     0.0000    32.0000 </r>
       <r>     5.2156     0.0000    32.0000 </r>
       <r>     5.3301     0.0000    32.0000 </r>
       <r>     5.4446     0.0000    32.0000 </r>
       <r>     5.5591     0.0000    32.0000 </r>
       <r>     5.6736     0.0000    32.0000 </r>
       <r>     5.7882     0.0000    32.0000 </r>
       <r>     5.9027     0.0000    32.0000 </r>
       <r>     6.0172     0.0000    32.0000 </r>
       <r>     6.1317     0.0000    32.0000 </r>
       <r>     6.2462    -0.0000    32.0000 </r>
       <r>     6.3608    -0.0000    32.0000 </r>
       <r>     6.4753    -0.0000    32.0000 </r>
       <r>     6.5898    -0.0000    32.0000 </r>
       <r>     6.7043    -0.0000    32.0000 </r>
       <r>     6.8188    -0.0000    32.0000 </r>
       <r>     6.9334    -0.0000    32.0000 </r>
       <r>     7.0479    -0.0000    32.0000 </r>
       <r>     7.1624    -0.0000    32.0000 </r>
       <r>     7.2769    -0.0001    32.0000 </r>
       <r>     7.3914    -0.0009    31.9999 </r>
       <r>     7.5060    -0.0065    31.9991 </r>
       <r>     7.6205    -0.0149    31.9974 </r>
       <r>     7.7350     0.0404    32.0021 </r>
       <r>     7.8495     0.2169    32.0269 </r>
       <r>     7.9640     0.2927    32.0604 </r>
       <r>     8.0786     0.1340    32.0758 </r>
       <r>     8.1931     0.0014    32.0759 </r>
       <r>     8.3076    -0.0129    32.0745 </r>
       <r>     8.4221    -0.0031    32.0741 </r>
       <r>     8.5366    -0.0003    32.0741 </r>
       <r>     8.6512    -0.0000    32.0741 </r>
       <r>     8.7657    -0.0000    32.0741 </r>
       <r>     8.8802    -0.0000    32.0741 </r>
       <r>     8.9947    -0.0000    32.0741 </r>
       <r>     9.1092    -0.0000    32.0741 </r>
       <r>     9.2238    -0.0009    32.0740 </r>
       <r>     9.3383    -0.0120    32.0726 </r>
       <r>     9.4528    -0.0636    32.0653 </r>
       <r>     9.5673    -0.0503    32.0596 </r>
       <r>     9.6818     0.5724    32.1251 </r>
       <r>     9.7964     1.6406    32.3130 </r>
       <r>     9.9109     1.5134    32.4863 </r>
       <r>    10.0254     0.4182    32.5342 </r>
       <r>    10.1399    -0.0751    32.5256 </r>
       <r>    10.2544    -0.0546    32.5193 </r>
       <r>    10.3689    -0.0359    32.5152 </r>
       <r>    10.4835    -0.1723    32.4955 </r>
       <r>    10.5980    -0.2534    32.4665 </r>
       <r>    10.7125     1.3439    32.6204 </r>
       <r>    10.8270     4.9815    33.1909 </r>
       <r>    10.9415     5.5012    33.8208 </r>
       <r>    11.0561     1.9761    34.0471 </r>
       <r>    11.1706    -0.1503    34.0299 </r>
       <r>    11.2851    -0.2161    34.0052 </r>
       <r>    11.3996    -0.0419    34.0004 </r>
       <r>    11.5141    -0.0037    34.0000 </r>
       <r>    11.6287    -0.0086    33.9990 </r>
       <r>    11.7432    -0.0865    33.9891 </r>
       <r>    11.8577    -0.3360    33.9506 </r>
       <r>    11.9722     0.1175    33.9641 </r>
       <r>    12.0867     3.5245    34.3677 </r>
       <r>    12.2013     7.3598    35.2105 </r>
       <r>    12.3158     6.0090    35.8987 </r>
       <r>    12.4303     2.8785    36.2283 </r>
       <r>    12.5448     1.5298    36.4035 </r>
       <r>    12.6593     0.4936    36.4600 </r>
       <r>    12.7739    -0.2295    36.4338 </r>
       <r>    12.8884    -0.5439    36.3715 </r>
       <r>    13.0029     0.7284    36.4549 </r>
       <r>    13.1174     5.8780    37.1280 </r>
       <r>    13.2319     9.5307    38.2195 </r>
       <r>    13.3465     6.3101    38.9421 </r>
       <r>    13.4610     3.3762    39.3288 </r>
       <r>    13.5755     3.2887    39.7054 </r>
       <r>    13.6900     3.5621    40.1133 </r>
       <r>    13.8045     3.3861    40.5011 </r>
       <r>    13.9191     1.3119    40.6513 </r>
       <r>    14.0336    -0.1562    40.6335 </r>
       <r>    14.1481     2.2213    40.8878 </r>
       <r>    14.2626     6.4817    41.6301 </r>
       <r>    14.3771     5.8670    42.3020 </r>
       <r>    14.4917     2.6353    42.6038 </r>
       <r>    14.6062     2.7680    42.9208 </r>
       <r>    14.7207     2.8426    43.2463 </r>
       <r>    14.8352     0.9807    43.3586 </r>
       <r>    14.9497    -0.1978    43.3360 </r>
       <r>    15.0643    -0.6505    43.2615 </r>
       <r>    15.1788    -0.3952    43.2162 </r>
       <r>    15.2933     4.7166    43.7564 </r>
       <r>    15.4078    13.7728    45.3336 </r>
       <r>    15.5223    14.4484    46.9882 </r>
       <r>    15.6368     6.7311    47.7591 </r>
       <r>    15.7514     1.6005    47.9424 </r>
       <r>    15.8659     0.1162    47.9557 </r>
       <r>    15.9804    -0.1798    47.9351 </r>
       <r>    16.0949    -0.0688    47.9272 </r>
       <r>    16.2094     0.1540    47.9448 </r>
       <r>    16.3240     0.2983    47.9790 </r>
       <r>    16.4385     0.1829    47.9999 </r>
       <r>    16.5530     0.0208    48.0023 </r>
       <r>    16.6675    -0.0148    48.0006 </r>
       <r>    16.7820    -0.0049    48.0001 </r>
       <r>    16.8966    -0.0006    48.0000 </r>
       <r>    17.0111    -0.0000    48.0000 </r>
       <r>    17.1256    -0.0000    48.0000 </r>
       <r>    17.2401    -0.0000    48.0000 </r>
       <r>    17.3546    -0.0000    48.0000 </r>
       <r>    17.4692    -0.0000    48.0000 </r>
       <r>    17.5837    -0.0000    48.0000 </r>
       <r>    17.6982     0.0000    48.0000 </r>
       <r>    17.8127     0.0000    48.0000 </r>
       <r>    17.9272     0.0000    48.0000 </r>
       <r>    18.0418     0.0000    48.0000 </r>
       <r>    18.1563     0.0000    48.0000 </r>
       <r>    18.2708     0.0000    48.0000 </r>
      </set>
     </set>
    </array>
   </total>
  </dos>
 </calculation>
 <structure name="finalpos" >
  <crystal>
   <varray name="basis" >
    <v>       4.21442769       0.00000000       0.00000000 </v>
    <v>       0.00000000       4.21442769       0.00000000 </v>
    <v>       0.00000000       0.00000000       4.21442769 </v>
   </varray>
   <i name="volume">     74.85413894 </i>
   <varray name="rec_basis" >
    <v>       0.23728014       0.00000000       0.00000000 </v>
    <v>       0.00000000       0.23728014       0.00000000 </v>
    <v>       0.00000000       0.00000000       0.23728014 </v>
   </varray>
  </crystal>
  <varray name="positions" >
   <v>       0.00000000       0.00000000       0.00000000 </v>
   <v>       0.00000000       0.50000000       0.50000000 </v>
   <v>       0.50000000       0.00000000       0.50000000 </v>
   <v>       0.50000000       0.50000000       0.00000000 </v>
   <v>       0.50000000       0.50000000       0.50000000 </v>
   <v>       0.50000000       0.00000000       0.00000000 </v>
   <v>       0.00000000       0.50000000       0.00000000 </v>
   <v>       0.00000000       0.00000000       0.50000000 </v>
  </varray>
 </structure>
</modeling>
