<?xml version="1.0" encoding="ISO-8859-1"?>
<modeling>
 <generator>
  <i name="program" type="string">vasp </i>
  <i name="version" type="string">5.4.1  </i>
  <i name="subversion" type="string">24Jun15 (build Oct  9 2015 14:58:31) complex                          parallel </i>
  <i name="platform" type="string">IFC91_ompi </i>
  <i name="date" type="string">2017 09 13 </i>
  <i name="time" type="string">10:58:55 </i>
 </generator>
 <incar>
  <i type="string" name="PREC">accurate</i>
  <i type="string" name="ALGO"> Fast</i>
  <i type="int" name="IBRION">     2</i>
  <i name="EDIFF">      0.00000001</i>
  <i type="int" name="NSW">    30</i>
  <i type="int" name="ISIF">     2</i>
  <i type="string" name="LREAL"> A</i>
  <i type="logical" name="LWAVE"> F  </i>
  <i type="logical" name="LCHARG"> F  </i>
  <v type="int" name="KPOINT_BSE">    -1     0     0     0</v>
  <i type="string" name="GGA"> PE</i>
 </incar>
 <kpoints>
  <generation param="Monkhorst-Pack">
   <v type="int" name="divisions">       3        3        3 </v>
   <v name="usershift">      0.00000000       0.00000000       0.00000000 </v>
   <v name="genvec1">      0.33333333       0.00000000       0.00000000 </v>
   <v name="genvec2">      0.00000000       0.33333333       0.00000000 </v>
   <v name="genvec3">      0.00000000       0.00000000       0.33333333 </v>
   <v name="shift">      0.00000000       0.00000000       0.00000000 </v>
  </generation>
  <varray name="kpointlist" >
   <v>       0.00000000       0.00000000       0.00000000 </v>
   <v>       0.33333333       0.00000000       0.00000000 </v>
   <v>       0.00000000       0.33333333       0.00000000 </v>
   <v>       0.33333333       0.33333333       0.00000000 </v>
   <v>       0.00000000       0.33333333       0.33333333 </v>
   <v>       0.33333333       0.33333333       0.33333333 </v>
  </varray>
  <varray name="weights" >
   <v>       0.03703704 </v>
   <v>       0.07407407 </v>
   <v>       0.14814815 </v>
   <v>       0.29629630 </v>
   <v>       0.14814815 </v>
   <v>       0.29629630 </v>
  </varray>
 </kpoints>
 <parameters>
  <separator name="general" >
   <i type="string" name="SYSTEM">unknown system</i>
   <i type="logical" name="LCOMPAT"> F  </i>
  </separator>
  <separator name="electronic" >
   <i type="string" name="PREC">accura</i>
   <i name="ENMAX">    400.00000000</i>
   <i name="ENAUG">    605.39200000</i>
   <i name="EDIFF">      0.00000001</i>
   <i type="int" name="IALGO">    68</i>
   <i type="int" name="IWAVPR">    11</i>
   <i type="int" name="NBANDS">    24</i>
   <i name="NELECT">     32.00000000</i>
   <i type="int" name="TURBO">     0</i>
   <i type="int" name="IRESTART">     0</i>
   <i type="int" name="NREBOOT">     0</i>
   <i type="int" name="NMIN">     0</i>
   <i name="EREF">      0.00000000</i>
   <separator name="electronic smearing" >
    <i type="int" name="ISMEAR">     1</i>
    <i name="SIGMA">      0.20000000</i>
    <i name="KSPACING">      0.50000000</i>
    <i type="logical" name="KGAMMA"> T  </i>
   </separator>
   <separator name="electronic projectors" >
    <i type="logical" name="LREAL"> T  </i>
    <v name="ROPT">     -0.00025000     -0.00025000</v>
    <i type="int" name="LMAXPAW">  -100</i>
    <i type="int" name="LMAXMIX">     2</i>
    <i type="logical" name="NLSPLINE"> F  </i>
   </separator>
   <separator name="electronic startup" >
    <i type="int" name="ISTART">     0</i>
    <i type="int" name="ICHARG">     2</i>
    <i type="int" name="INIWAV">     1</i>
   </separator>
   <separator name="electronic spin" >
    <i type="int" name="ISPIN">     1</i>
    <i type="logical" name="LNONCOLLINEAR"> F  </i>
    <v name="MAGMOM">      1.00000000      1.00000000      1.00000000      1.00000000      1.00000000      1.00000000      1.00000000      1.00000000</v>
    <i name="NUPDOWN">     -1.00000000</i>
    <i type="logical" name="LSORBIT"> F  </i>
    <v name="SAXIS">      0.00000000      0.00000000      1.00000000</v>
    <i type="logical" name="LSPIRAL"> F  </i>
    <v name="QSPIRAL">      0.00000000      0.00000000      0.00000000</v>
    <i type="logical" name="LZEROZ"> F  </i>
   </separator>
   <separator name="electronic exchange-correlation" >
    <i type="logical" name="LASPH"> F  </i>
    <i type="logical" name="LMETAGGA"> F  </i>
   </separator>
   <separator name="electronic convergence" >
    <i type="int" name="NELM">    60</i>
    <i type="int" name="NELMDL">    -5</i>
    <i type="int" name="NELMIN">     2</i>
    <i name="ENINI">    400.00000000</i>
    <separator name="electronic convergence detail" >
     <i type="logical" name="LDIAG"> T  </i>
     <i type="logical" name="LSUBROT"> F  </i>
     <i name="WEIMIN">      0.00100000</i>
     <i name="EBREAK">      0.00000000</i>
     <i name="DEPER">      0.30000000</i>
     <i type="int" name="NRMM">     4</i>
     <i name="TIME">      0.40000000</i>
    </separator>
   </separator>
   <separator name="electronic mixer" >
    <i name="AMIX">      0.40000000</i>
    <i name="BMIX">      1.00000000</i>
    <i name="AMIN">      0.10000000</i>
    <i name="AMIX_MAG">      1.60000000</i>
    <i name="BMIX_MAG">      1.00000000</i>
    <separator name="electronic mixer details" >
     <i type="int" name="IMIX">     4</i>
     <i type="logical" name="MIXFIRST"> F  </i>
     <i type="int" name="MAXMIX">   -45</i>
     <i name="WC">    100.00000000</i>
     <i type="int" name="INIMIX">     1</i>
     <i type="int" name="MIXPRE">     1</i>
     <i type="int" name="MREMOVE">     5</i>
    </separator>
   </separator>
   <separator name="electronic dipolcorrection" >
    <i type="logical" name="LDIPOL"> F  </i>
    <i type="logical" name="LMONO"> F  </i>
    <i type="int" name="IDIPOL">     0</i>
    <i name="EPSILON">      1.00000000</i>
    <v name="DIPOL">   -100.00000000   -100.00000000   -100.00000000</v>
    <i name="EFIELD">      0.00000000</i>
   </separator>
  </separator>
  <separator name="grids" >
   <i type="int" name="NGX">    28</i>
   <i type="int" name="NGY">    28</i>
   <i type="int" name="NGZ">    28</i>
   <i type="int" name="NGXF">    56</i>
   <i type="int" name="NGYF">    56</i>
   <i type="int" name="NGZF">    56</i>
   <i type="logical" name="ADDGRID"> F  </i>
  </separator>
  <separator name="ionic" >
   <i type="int" name="NSW">    30</i>
   <i type="int" name="IBRION">     2</i>
   <i type="int" name="ISIF">     2</i>
   <i name="PSTRESS">      0.00000000</i>
   <i name="EDIFFG">      0.00000010</i>
   <i type="int" name="NFREE">     1</i>
   <i name="POTIM">      0.50000000</i>
   <i name="SMASS">     -3.00000000</i>
   <i name="SCALEE">      1.00000000</i>
  </separator>
  <separator name="ionic md" >
   <i name="TEBEG">      0.00010000</i>
   <i name="TEEND">      0.00010000</i>
   <i type="int" name="NBLOCK">     1</i>
   <i type="int" name="KBLOCK">    30</i>
   <i type="int" name="NPACO">   256</i>
   <i name="APACO">     16.00000000</i>
  </separator>
  <separator name="symmetry" >
   <i type="int" name="ISYM">     2</i>
   <i name="SYMPREC">      0.00001000</i>
  </separator>
  <separator name="dos" >
   <i type="logical" name="LORBIT"> T  </i>
   <v name="RWIGS">     -1.00000000     -1.00000000</v>
   <i type="int" name="NEDOS">   301</i>
   <i name="EMIN">     10.00000000</i>
   <i name="EMAX">    -10.00000000</i>
   <i name="EFERMI">      0.00000000</i>
  </separator>
  <separator name="writing" >
   <i type="int" name="NWRITE">     2</i>
   <i type="logical" name="LWAVE"> F  </i>
   <i type="logical" name="LCHARG"> F  </i>
   <i type="logical" name="LPARD"> F  </i>
   <i type="logical" name="LVTOT"> F  </i>
   <i type="logical" name="LVHAR"> F  </i>
   <i type="logical" name="LELF"> F  </i>
   <i type="logical" name="LOPTICS"> F  </i>
   <v name="STM">      0.00000000      0.00000000      0.00000000      0.00000000      0.00000000      0.00000000      0.00000000</v>
  </separator>
  <separator name="performance" >
   <i type="int" name="NPAR">     4</i>
   <i type="int" name="NSIM">     4</i>
   <i type="int" name="NBLK">    -1</i>
   <i type="logical" name="LPLANE"> T  </i>
   <i type="logical" name="LSCALAPACK"> T  </i>
   <i type="logical" name="LSCAAWARE"> F  </i>
   <i type="logical" name="LSCALU"> F  </i>
   <i type="logical" name="LASYNC"> F  </i>
   <i type="logical" name="LORBITALREAL"> F  </i>
  </separator>
  <separator name="miscellaneous" >
   <i type="int" name="IDIOT">     3</i>
   <i type="logical" name="LMUSIC"> F  </i>
   <v name="POMASS">     24.30500000     16.00000000</v>
   <v name="DARWINR">      0.00000000      0.00000000</v>
   <v name="DARWINV">      1.00000000      1.00000000</v>
   <i type="logical" name="LCORR"> T  </i>
  </separator>
  <i type="logical" name="GGA_COMPAT"> T  </i>
  <i type="logical" name="LBERRY"> F  </i>
  <i type="int" name="ICORELEVEL">     0</i>
  <i type="logical" name="LDAU"> F  </i>
  <i type="int" name="I_CONSTRAINED_M">     0</i>
  <separator name="electronic exchange-correlation" >
   <i type="string" name="GGA">PE</i>
   <i type="int" name="VOSKOWN">     0</i>
   <i type="logical" name="LHFCALC"> F  </i>
   <i type="string" name="PRECFOCK"></i>
   <i type="logical" name="LSYMGRAD"> F  </i>
   <i type="logical" name="LHFONE"> F  </i>
   <i type="logical" name="LRHFCALC"> F  </i>
   <i type="logical" name="LTHOMAS"> F  </i>
   <i type="logical" name="LMODELHF"> F  </i>
   <i name="ENCUT4O">     -1.00000000</i>
   <i type="int" name="EXXOEP">     0</i>
   <i type="int" name="FOURORBIT">     0</i>
   <i name="AEXX">      0.00000000</i>
   <i name="HFALPHA">      0.00000000</i>
   <i name="MCALPHA">      0.00000000</i>
   <i name="ALDAX">      1.00000000</i>
   <i name="AGGAX">      1.00000000</i>
   <i name="ALDAC">      1.00000000</i>
   <i name="AGGAC">      1.00000000</i>
   <i type="int" name="NKREDX">     1</i>
   <i type="int" name="NKREDY">     1</i>
   <i type="int" name="NKREDZ">     1</i>
   <i type="logical" name="SHIFTRED"> F  </i>
   <i type="logical" name="ODDONLY"> F  </i>
   <i type="logical" name="EVENONLY"> F  </i>
   <i type="int" name="LMAXFOCK">     0</i>
   <i type="int" name="NMAXFOCKAE">     0</i>
   <i type="logical" name="LFOCKAEDFT"> F  </i>
   <i name="HFSCREEN">      0.00000000</i>
   <i name="HFSCREENC">      0.00000000</i>
   <i type="int" name="NBANDSGWLOW">     0</i>
  </separator>
  <separator name="vdW DFT" >
   <i type="logical" name="LUSE_VDW"> F  </i>
   <i name="Zab_VDW">     -0.84910000</i>
   <i name="PARAM1">      0.12340000</i>
   <i name="PARAM2">      1.00000000</i>
   <i name="PARAM3">      0.00000000</i>
  </separator>
  <separator name="model GW" >
   <i type="int" name="MODEL_GW">     0</i>
   <i name="MODEL_EPS0">      5.50289091</i>
   <i name="MODEL_ALPHA">      1.00000000</i>
  </separator>
  <separator name="linear response parameters" >
   <i type="logical" name="LEPSILON"> F  </i>
   <i type="logical" name="LRPA"> F  </i>
   <i type="logical" name="LNABLA"> F  </i>
   <i type="logical" name="LVEL"> F  </i>
   <i type="int" name="KINTER">     0</i>
   <i name="CSHIFT">      0.10000000</i>
   <i name="OMEGAMAX">     -1.00000000</i>
   <i name="DEG_THRESHOLD">      0.00200000</i>
  </separator>
  <separator name="orbital magnetization" >
   <i type="logical" name="NUCIND"> F  </i>
   <v name="MAGPOS">      0.00000000      0.00000000      0.00000000</v>
   <i type="logical" name="LNICSALL"> T  </i>
   <i type="logical" name="ORBITALMAG"> F  </i>
   <i type="logical" name="LMAGBLOCH"> F  </i>
   <i type="logical" name="LCHIMAG"> F  </i>
   <i type="logical" name="LGAUGE"> T  </i>
   <i type="int" name="MAGATOM">     0</i>
   <v name="MAGDIPOL">      0.00000000      0.00000000      0.00000000</v>
   <v name="AVECCONST">      0.00000000      0.00000000      0.00000000</v>
  </separator>
  <separator name="response functions" >
   <i type="logical" name="LADDER"> F  </i>
   <i type="logical" name="LFXC"> F  </i>
   <i type="logical" name="LHARTREE"> T  </i>
   <i type="int" name="IBSE">     0</i>
   <v type="int" name="KPOINT">    -1     0     0     0</v>
   <i type="logical" name="LTCTE"> F  </i>
   <i type="logical" name="LTETE"> F  </i>
   <i type="logical" name="LTRIPLET"> F  </i>
   <i type="logical" name="LFXCEPS"> F  </i>
   <i type="logical" name="LFXHEG"> F  </i>
   <i type="int" name="NATURALO">     0</i>
   <i type="logical" name="L2ORDER"> F  </i>
   <i type="logical" name="LUSEW"> F  </i>
   <i name="ENCUTGW">     -2.00000000</i>
   <i name="ENCUTGWSOFT">     -2.00000000</i>
   <i name="ENCUTLF">     -1.00000000</i>
   <i type="int" name="LMAXMP2">    -1</i>
   <i name="SCISSOR">      0.00000000</i>
   <i type="int" name="NOMEGA">     0</i>
   <i type="int" name="NOMEGAR">     0</i>
   <i type="int" name="NBANDSGW">    -1</i>
   <i type="int" name="NBANDSO">    -1</i>
   <i type="int" name="NBANDSV">    -1</i>
   <i type="int" name="NELM">     1</i>
   <i type="int" name="NELMHF">     1</i>
   <i type="int" name="DIM">     3</i>
   <i type="int" name="ANTIRES">     0</i>
   <i name="OMEGAMAX">    -30.00000000</i>
   <i name="OMEGAMIN">    -30.00000000</i>
   <i name="OMEGATL">   -200.00000000</i>
   <i type="int" name="OMEGAGRID">     0</i>
   <i name="CSHIFT">     -0.10000000</i>
   <i type="logical" name="SELFENERGY"> F  </i>
   <i type="logical" name="LSPECTRAL"> F  </i>
   <i type="logical" name="LSPECTRALGW"> F  </i>
   <i type="logical" name="LSINGLES"> F  </i>
   <i type="logical" name="LFERMIGW"> F  </i>
   <i type="logical" name="ODDONLYGW"> F  </i>
   <i type="logical" name="EVENONLYGW"> F  </i>
   <i type="int" name="NKREDLFX">     1</i>
   <i type="int" name="NKREDLFY">     1</i>
   <i type="int" name="NKREDLFZ">     1</i>
   <i type="int" name="MAXMEM">  1800</i>
   <i type="int" name="TELESCOPE">     0</i>
   <i type="int" name="TAUPAR">     1</i>
   <i type="int" name="OMEGAPAR">    -1</i>
   <i name="LAMBDA">      1.00000000</i>
  </separator>
  <separator name="External order field" >
   <i name="OFIELD_KAPPA">      0.00000000</i>
   <v name="OFIELD_K">      0.00000000      0.00000000      0.00000000</v>
   <i name="OFIELD_Q6_NEAR">      0.00000000</i>
   <i name="OFIELD_Q6_FAR">      0.00000000</i>
   <i name="OFIELD_A">      0.00000000</i>
  </separator>
 </parameters>
 <atominfo>
  <atoms>       8 </atoms>
  <types>       2 </types>
  <array name="atoms" >
   <dimension dim="1">ion</dimension>
   <field type="string">element</field>
   <field type="int">atomtype</field>
   <set>
    <rc><c>Mg</c><c>   1</c></rc>
    <rc><c>Mg</c><c>   1</c></rc>
    <rc><c>Mg</c><c>   1</c></rc>
    <rc><c>Mg</c><c>   1</c></rc>
    <rc><c>O </c><c>   2</c></rc>
    <rc><c>O </c><c>   2</c></rc>
    <rc><c>O </c><c>   2</c></rc>
    <rc><c>O </c><c>   2</c></rc>
   </set>
  </array>
  <array name="atomtypes" >
   <dimension dim="1">type</dimension>
   <field type="int">atomspertype</field>
   <field type="string">element</field>
   <field>mass</field>
   <field>valence</field>
   <field type="string">pseudopotential</field>
   <set>
    <rc><c>   4</c><c>Mg</c><c>     24.30500000</c><c>      2.00000000</c><c>  PAW_PBE Mg 13Apr2007                  </c></rc>
    <rc><c>   4</c><c>O </c><c>     16.00000000</c><c>      6.00000000</c><c>  PAW_PBE O 08Apr2002                   </c></rc>
   </set>
  </array>
 </atominfo>
 <structure name="initialpos" >
  <crystal>
   <varray name="basis" >
    <v>       4.15846780       0.00000000       0.00000000 </v>
    <v>       0.00000000       4.20047253       0.00000000 </v>
    <v>       0.00000000       0.00000000       4.20047253 </v>
   </varray>
   <i name="volume">     73.37187877 </i>
   <varray name="rec_basis" >
    <v>       0.24047319       0.00000000       0.00000000 </v>
    <v>       0.00000000       0.23806845       0.00000000 </v>
    <v>       0.00000000       0.00000000       0.23806845 </v>
   </varray>
  </crystal>
  <varray name="positions" >
   <v>       0.00000000       0.00000000       0.00000000 </v>
   <v>       0.00000000       0.50000000       0.50000000 </v>
   <v>       0.50000000       0.00000000       0.50000000 </v>
   <v>       0.50000000       0.50000000       0.00000000 </v>
   <v>       0.50000000       0.50000000       0.50000000 </v>
   <v>       0.50000000       0.00000000       0.00000000 </v>
   <v>       0.00000000       0.50000000       0.00000000 </v>
   <v>       0.00000000       0.00000000       0.50000000 </v>
  </varray>
 </structure>
 <calculation>
  <scstep>
   <time name="dav">    0.54    0.54</time>
   <time name="total">    0.60    0.61</time>
   <energy>
    <i name="alphaZ">     79.65895471 </i>
    <i name="ewald">  -1441.50673085 </i>
    <i name="hartreedc">   -480.11197654 </i>
    <i name="XCdc">    -81.49909492 </i>
    <i name="pawpsdc">   1647.42468863 </i>
    <i name="pawaedc">  -1447.16842517 </i>
    <i name="eentropy">      0.00179660 </i>
    <i name="bandstr">     24.47113983 </i>
    <i name="atom">   1821.19987801 </i>
    <i name="e_fr_energy">    122.47023031 </i>
    <i name="e_wo_entrp">    122.46843370 </i>
    <i name="e_0_energy">    122.46963144 </i>
   </energy>
  </scstep>
  <scstep>
   <time name="dav">    0.67    0.67</time>
   <time name="total">    0.67    0.67</time>
   <energy>
    <i name="e_fr_energy">    -45.74187195 </i>
    <i name="e_wo_entrp">    -45.74269615 </i>
    <i name="e_0_energy">    -45.74214668 </i>
   </energy>
  </scstep>
  <scstep>
   <time name="dav">    0.62    0.62</time>
   <time name="total">    0.62    0.62</time>
   <energy>
    <i name="e_fr_energy">    -53.74022796 </i>
    <i name="e_wo_entrp">    -53.74750540 </i>
    <i name="e_0_energy">    -53.74265377 </i>
   </energy>
  </scstep>
  <scstep>
   <time name="dav">    0.52    0.53</time>
   <time name="total">    0.53    0.53</time>
   <energy>
    <i name="e_fr_energy">    -53.78016273 </i>
    <i name="e_wo_entrp">    -53.78745450 </i>
    <i name="e_0_energy">    -53.78259332 </i>
   </energy>
  </scstep>
  <scstep>
   <time name="dav">    0.60    0.60</time>
   <time name="total">    0.70    0.71</time>
   <energy>
    <i name="e_fr_energy">    -53.78036375 </i>
    <i name="e_wo_entrp">    -53.78765804 </i>
    <i name="e_0_energy">    -53.78279518 </i>
   </energy>
  </scstep>
  <scstep>
   <time name="diag">    0.06    0.06</time>
   <time name="diis">    0.31    0.31</time>
   <time name="orth">    0.00    0.00</time>
   <time name="total">    0.53    0.54</time>
   <energy>
    <i name="e_fr_energy">    -47.75512988 </i>
    <i name="e_wo_entrp">    -47.75705805 </i>
    <i name="e_0_energy">    -47.75577260 </i>
   </energy>
  </scstep>
  <scstep>
   <time name="diag">    0.06    0.06</time>
   <time name="diis">    0.31    0.32</time>
   <time name="orth">    0.00    0.00</time>
   <time name="total">    0.54    0.54</time>
   <energy>
    <i name="e_fr_energy">    -47.67767860 </i>
    <i name="e_wo_entrp">    -47.67959977 </i>
    <i name="e_0_energy">    -47.67831899 </i>
   </energy>
  </scstep>
  <scstep>
   <time name="diag">    0.06    0.06</time>
   <time name="diis">    0.31    0.31</time>
   <time name="orth">    0.00    0.00</time>
   <time name="total">    0.54    0.54</time>
   <energy>
    <i name="e_fr_energy">    -47.65885622 </i>
    <i name="e_wo_entrp">    -47.66082567 </i>
    <i name="e_0_energy">    -47.65951270 </i>
   </energy>
  </scstep>
  <scstep>
   <time name="diag">    0.06    0.06</time>
   <time name="diis">    0.31    0.31</time>
   <time name="orth">    0.00    0.00</time>
   <time name="total">    0.53    0.53</time>
   <energy>
    <i name="e_fr_energy">    -47.65907653 </i>
    <i name="e_wo_entrp">    -47.66097205 </i>
    <i name="e_0_energy">    -47.65970837 </i>
   </energy>
  </scstep>
  <scstep>
   <time name="diag">    0.06    0.06</time>
   <time name="diis">    0.32    0.32</time>
   <time name="orth">    0.01    0.00</time>
   <time name="total">    0.54    0.55</time>
   <energy>
    <i name="e_fr_energy">    -47.65542401 </i>
    <i name="e_wo_entrp">    -47.65734657 </i>
    <i name="e_0_energy">    -47.65606486 </i>
   </energy>
  </scstep>
  <scstep>
   <time name="diag">    0.06    0.06</time>
   <time name="diis">    0.32    0.32</time>
   <time name="orth">    0.00    0.00</time>
   <time name="total">    0.54    0.54</time>
   <energy>
    <i name="e_fr_energy">    -47.65530609 </i>
    <i name="e_wo_entrp">    -47.65723524 </i>
    <i name="e_0_energy">    -47.65594914 </i>
   </energy>
  </scstep>
  <scstep>
   <time name="diag">    0.06    0.06</time>
   <time name="diis">    0.31    0.31</time>
   <time name="orth">    0.00    0.00</time>
   <time name="total">    0.53    0.54</time>
   <energy>
    <i name="e_fr_energy">    -47.65530638 </i>
    <i name="e_wo_entrp">    -47.65723462 </i>
    <i name="e_0_energy">    -47.65594912 </i>
   </energy>
  </scstep>
  <scstep>
   <time name="diag">    0.06    0.06</time>
   <time name="diis">    0.31    0.31</time>
   <time name="orth">    0.00    0.00</time>
   <time name="total">    0.53    0.53</time>
   <energy>
    <i name="e_fr_energy">    -47.65530647 </i>
    <i name="e_wo_entrp">    -47.65723506 </i>
    <i name="e_0_energy">    -47.65594933 </i>
   </energy>
  </scstep>
  <scstep>
   <time name="diag">    0.06    0.06</time>
   <time name="diis">    0.22    0.22</time>
   <time name="orth">    0.00    0.00</time>
   <time name="total">    0.34    0.34</time>
   <energy>
    <i name="alphaZ">     79.65895471 </i>
    <i name="ewald">  -1441.50673085 </i>
    <i name="hartreedc">   -560.01457250 </i>
    <i name="XCdc">    -75.26875447 </i>
    <i name="pawpsdc">   2254.59357212 </i>
    <i name="pawaedc">  -2055.44889047 </i>
    <i name="eentropy">      0.00192855 </i>
    <i name="bandstr">    -70.87069158 </i>
    <i name="atom">   1821.19987801 </i>
    <i name="e_fr_energy">    -47.65530647 </i>
    <i name="e_wo_entrp">    -47.65723502 </i>
    <i name="e_0_energy">    -47.65594932 </i>
   </energy>
  </scstep>
  <structure>
   <crystal>
    <varray name="basis" >
     <v>       4.15846780       0.00000000       0.00000000 </v>
     <v>       0.00000000       4.20047253       0.00000000 </v>
     <v>       0.00000000       0.00000000       4.20047253 </v>
    </varray>
    <i name="volume">     73.37187877 </i>
    <varray name="rec_basis" >
     <v>       0.24047319       0.00000000       0.00000000 </v>
     <v>       0.00000000       0.23806845       0.00000000 </v>
     <v>       0.00000000       0.00000000       0.23806845 </v>
    </varray>
   </crystal>
   <varray name="positions" >
    <v>       0.00000000       0.00000000       0.00000000 </v>
    <v>       0.00000000       0.50000000       0.50000000 </v>
    <v>       0.50000000       0.00000000       0.50000000 </v>
    <v>       0.50000000       0.50000000       0.00000000 </v>
    <v>       0.50000000       0.50000000       0.50000000 </v>
    <v>       0.50000000       0.00000000       0.00000000 </v>
    <v>       0.00000000       0.50000000       0.00000000 </v>
    <v>       0.00000000       0.00000000       0.50000000 </v>
   </varray>
  </structure>
  <varray name="forces" >
   <v>       0.00000000       0.00000000      -0.00000000 </v>
   <v>       0.00000000       0.00000000       0.00000000 </v>
   <v>       0.00000000       0.00000000       0.00000000 </v>
   <v>       0.00000000      -0.00000000      -0.00000000 </v>
   <v>       0.00000000      -0.00000000      -0.00000000 </v>
   <v>       0.00000000       0.00000000       0.00000000 </v>
   <v>       0.00000000      -0.00000000      -0.00000000 </v>
   <v>      -0.00000000      -0.00000000       0.00000000 </v>
  </varray>
  <varray name="stress" >
   <v>      36.25116921       0.00000000       0.00000000 </v>
   <v>       0.00000000      12.13801450       0.00000000 </v>
   <v>       0.00000000       0.00000000      12.13801450 </v>
  </varray>
  <energy>
   <i name="e_fr_energy">    -47.65530647 </i>
   <i name="e_wo_entrp">    -47.65594932 </i>
   <i name="e_0_energy">      0.00192855 </i>
  </energy>
  <time name="totalsc">    8.90    8.97</time>
  <eigenvalues>
   <array>
    <dimension dim="1">band</dimension>
    <dimension dim="2">kpoint</dimension>
    <dimension dim="3">spin</dimension>
    <field>eigene</field>
    <field>occ</field>
    <set>
     <set comment="spin 1">
      <set comment="kpoint 1">
       <r>  -14.0387    1.0000 </r>
       <r>  -12.4561    1.0000 </r>
       <r>  -12.4561    1.0000 </r>
       <r>  -12.4279    1.0000 </r>
       <r>   -0.8547    1.0000 </r>
       <r>   -0.8547    1.0000 </r>
       <r>   -0.8166    1.0000 </r>
       <r>    1.9121    1.0000 </r>
       <r>    1.9121    1.0000 </r>
       <r>    1.9242    1.0000 </r>
       <r>    1.9242    1.0000 </r>
       <r>    1.9871    1.0000 </r>
       <r>    1.9871    1.0000 </r>
       <r>    3.2970    1.0095 </r>
       <r>    3.3195    0.9840 </r>
       <r>    3.3195    0.9840 </r>
       <r>    8.2289   -0.0000 </r>
       <r>   12.4043    0.0000 </r>
       <r>   12.5110    0.0000 </r>
       <r>   12.5110    0.0000 </r>
       <r>   13.4892    0.0000 </r>
       <r>   13.5039    0.0000 </r>
       <r>   13.5039    0.0000 </r>
       <r>   16.5883    0.0000 </r>
      </set>
      <set comment="kpoint 2">
       <r>  -13.6501    1.0000 </r>
       <r>  -12.8424    1.0000 </r>
       <r>  -12.4102    1.0000 </r>
       <r>  -12.4102    1.0000 </r>
       <r>   -0.3105    1.0000 </r>
       <r>   -0.3105    1.0000 </r>
       <r>   -0.1664    1.0000 </r>
       <r>    1.0563    1.0000 </r>
       <r>    1.0563    1.0000 </r>
       <r>    1.5871    1.0000 </r>
       <r>    1.5871    1.0000 </r>
       <r>    1.7076    1.0000 </r>
       <r>    2.2200    1.0000 </r>
       <r>    2.2200    1.0000 </r>
       <r>    2.9135    1.0003 </r>
       <r>    2.9135    1.0003 </r>
       <r>   10.1363    0.0000 </r>
       <r>   12.8183    0.0000 </r>
       <r>   13.3435    0.0000 </r>
       <r>   13.9919    0.0000 </r>
       <r>   13.9919    0.0000 </r>
       <r>   14.9761    0.0000 </r>
       <r>   15.9035    0.0000 </r>
       <r>   15.9671    0.0000 </r>
      </set>
      <set comment="kpoint 3">
       <r>  -13.6610    1.0000 </r>
       <r>  -12.8669    1.0000 </r>
       <r>  -12.4070    1.0000 </r>
       <r>  -12.3924    1.0000 </r>
       <r>   -0.3215    1.0000 </r>
       <r>   -0.2865    1.0000 </r>
       <r>   -0.1771    1.0000 </r>
       <r>    1.0095    1.0000 </r>
       <r>    1.0321    1.0000 </r>
       <r>    1.6135    1.0000 </r>
       <r>    1.6499    1.0000 </r>
       <r>    1.7201    1.0000 </r>
       <r>    2.2254    1.0000 </r>
       <r>    2.2810    1.0000 </r>
       <r>    2.9012    1.0002 </r>
       <r>    2.9370    1.0005 </r>
       <r>   10.1357    0.0000 </r>
       <r>   12.8213    0.0000 </r>
       <r>   13.4290    0.0000 </r>
       <r>   13.8928    0.0000 </r>
       <r>   14.0029    0.0000 </r>
       <r>   14.9503    0.0000 </r>
       <r>   15.0762    0.0000 </r>
       <r>   15.9377    0.0000 </r>
      </set>
      <set comment="kpoint 4">
       <r>  -13.3327    1.0000 </r>
       <r>  -12.7088    1.0000 </r>
       <r>  -12.6952    1.0000 </r>
       <r>  -12.4751    1.0000 </r>
       <r>   -0.2845    1.0000 </r>
       <r>   -0.2840    1.0000 </r>
       <r>    0.0334    1.0000 </r>
       <r>    0.1881    1.0000 </r>
       <r>    0.6480    1.0000 </r>
       <r>    1.4130    1.0000 </r>
       <r>    1.4482    1.0000 </r>
       <r>    2.2605    1.0000 </r>
       <r>    2.2814    1.0000 </r>
       <r>    2.3025    1.0000 </r>
       <r>    2.3661    1.0000 </r>
       <r>    2.9891    1.0016 </r>
       <r>   11.1925    0.0000 </r>
       <r>   13.5216    0.0000 </r>
       <r>   13.5328    0.0000 </r>
       <r>   13.7794    0.0000 </r>
       <r>   14.4375    0.0000 </r>
       <r>   14.5084    0.0000 </r>
       <r>   15.6257    0.0000 </r>
       <r>   15.6680    0.0000 </r>
      </set>
      <set comment="kpoint 5">
       <r>  -13.3403    1.0000 </r>
       <r>  -12.7104    1.0000 </r>
       <r>  -12.7104    1.0000 </r>
       <r>  -12.4710    1.0000 </r>
       <r>   -0.2651    1.0000 </r>
       <r>   -0.2651    1.0000 </r>
       <r>    0.0468    1.0000 </r>
       <r>    0.2070    1.0000 </r>
       <r>    0.6848    1.0000 </r>
       <r>    1.4252    1.0000 </r>
       <r>    1.4252    1.0000 </r>
       <r>    2.2709    1.0000 </r>
       <r>    2.2848    1.0000 </r>
       <r>    2.2848    1.0000 </r>
       <r>    2.3490    1.0000 </r>
       <r>    2.9872    1.0015 </r>
       <r>   11.1976    0.0000 </r>
       <r>   13.5135    0.0000 </r>
       <r>   13.5135    0.0000 </r>
       <r>   13.7038    0.0000 </r>
       <r>   14.5392    0.0000 </r>
       <r>   14.5392    0.0000 </r>
       <r>   15.6890    0.0000 </r>
       <r>   15.7753    0.0000 </r>
      </set>
      <set comment="kpoint 6">
       <r>  -13.0898    1.0000 </r>
       <r>  -12.6535    1.0000 </r>
       <r>  -12.6535    1.0000 </r>
       <r>  -12.6464    1.0000 </r>
       <r>   -0.9253    1.0000 </r>
       <r>   -0.9189    1.0000 </r>
       <r>   -0.9189    1.0000 </r>
       <r>   -0.4080    1.0000 </r>
       <r>    1.8382    1.0000 </r>
       <r>    1.8382    1.0000 </r>
       <r>    1.8613    1.0000 </r>
       <r>    2.4366    1.0000 </r>
       <r>    2.4612    1.0000 </r>
       <r>    2.4612    1.0000 </r>
       <r>    2.7897    1.0000 </r>
       <r>    2.8040    1.0000 </r>
       <r>   11.1397    0.0000 </r>
       <r>   12.4389    0.0000 </r>
       <r>   12.4555    0.0000 </r>
       <r>   12.4555    0.0000 </r>
       <r>   15.7084    0.0000 </r>
       <r>   15.7344    0.0000 </r>
       <r>   15.7344    0.0000 </r>
       <r>   15.8175    0.0000 </r>
      </set>
     </set>
    </set>
   </array>
  </eigenvalues>
  <separator name="orbital magnetization" >
   <v name="MAGDIPOLOUT">      0.00000000      0.00000000      0.00000000</v>
  </separator>
  <dos>
   <i name="efermi">      3.47490481 </i>
   <total>
    <array>
     <dimension dim="1">gridpoints</dimension>
     <dimension dim="2">spin</dimension>
     <field>energy</field>
     <field>total</field>
     <field>integrated</field>
     <set>
      <set comment="spin 1">
       <r>   -16.0387     0.0000     0.0000 </r>
       <r>   -15.9233     0.0000     0.0000 </r>
       <r>   -15.8078     0.0000     0.0000 </r>
       <r>   -15.6924    -0.0000    -0.0000 </r>
       <r>   -15.5770    -0.0000    -0.0000 </r>
       <r>   -15.4616    -0.0000    -0.0000 </r>
       <r>   -15.3461    -0.0000    -0.0000 </r>
       <r>   -15.2307    -0.0000    -0.0000 </r>
       <r>   -15.1153    -0.0000    -0.0000 </r>
       <r>   -14.9999    -0.0000    -0.0000 </r>
       <r>   -14.8845    -0.0000    -0.0000 </r>
       <r>   -14.7690    -0.0000    -0.0000 </r>
       <r>   -14.6536    -0.0000    -0.0000 </r>
       <r>   -14.5382    -0.0007    -0.0001 </r>
       <r>   -14.4228    -0.0058    -0.0008 </r>
       <r>   -14.3073    -0.0151    -0.0025 </r>
       <r>   -14.1919     0.0319     0.0012 </r>
       <r>   -14.0765     0.1875     0.0228 </r>
       <r>   -13.9611     0.2137     0.0475 </r>
       <r>   -13.8456     0.1687     0.0670 </r>
       <r>   -13.7302     0.8336     0.1632 </r>
       <r>   -13.6148     1.5843     0.3461 </r>
       <r>   -13.4994     1.4484     0.5132 </r>
       <r>   -13.3839     2.3363     0.7829 </r>
       <r>   -13.2685     3.5578     1.1935 </r>
       <r>   -13.1531     3.0428     1.5448 </r>
       <r>   -13.0377     2.1852     1.7970 </r>
       <r>   -12.9223     1.7190     1.9954 </r>
       <r>   -12.8068     4.8672     2.5572 </r>
       <r>   -12.6914    12.2147     3.9670 </r>
       <r>   -12.5760    14.6591     5.6590 </r>
       <r>   -12.4606    11.0254     6.9316 </r>
       <r>   -12.3451     7.1185     7.7533 </r>
       <r>   -12.2297     2.6229     8.0560 </r>
       <r>   -12.1143    -0.0939     8.0452 </r>
       <r>   -11.9989    -0.3111     8.0093 </r>
       <r>   -11.8834    -0.0730     8.0008 </r>
       <r>   -11.7680    -0.0069     8.0000 </r>
       <r>   -11.6526    -0.0003     8.0000 </r>
       <r>   -11.5372    -0.0000     8.0000 </r>
       <r>   -11.4217    -0.0000     8.0000 </r>
       <r>   -11.3063    -0.0000     8.0000 </r>
       <r>   -11.1909    -0.0000     8.0000 </r>
       <r>   -11.0755    -0.0000     8.0000 </r>
       <r>   -10.9601     0.0000     8.0000 </r>
       <r>   -10.8446     0.0000     8.0000 </r>
       <r>   -10.7292     0.0000     8.0000 </r>
       <r>   -10.6138     0.0000     8.0000 </r>
       <r>   -10.4984     0.0000     8.0000 </r>
       <r>   -10.3829     0.0000     8.0000 </r>
       <r>   -10.2675     0.0000     8.0000 </r>
       <r>   -10.1521     0.0000     8.0000 </r>
       <r>   -10.0367     0.0000     8.0000 </r>
       <r>    -9.9212     0.0000     8.0000 </r>
       <r>    -9.8058     0.0000     8.0000 </r>
       <r>    -9.6904     0.0000     8.0000 </r>
       <r>    -9.5750     0.0000     8.0000 </r>
       <r>    -9.4596     0.0000     8.0000 </r>
       <r>    -9.3441     0.0000     8.0000 </r>
       <r>    -9.2287     0.0000     8.0000 </r>
       <r>    -9.1133     0.0000     8.0000 </r>
       <r>    -8.9979     0.0000     8.0000 </r>
       <r>    -8.8824     0.0000     8.0000 </r>
       <r>    -8.7670     0.0000     8.0000 </r>
       <r>    -8.6516     0.0000     8.0000 </r>
       <r>    -8.5362     0.0000     8.0000 </r>
       <r>    -8.4207     0.0000     8.0000 </r>
       <r>    -8.3053     0.0000     8.0000 </r>
       <r>    -8.1899     0.0000     8.0000 </r>
       <r>    -8.0745     0.0000     8.0000 </r>
       <r>    -7.9590     0.0000     8.0000 </r>
       <r>    -7.8436     0.0000     8.0000 </r>
       <r>    -7.7282     0.0000     8.0000 </r>
       <r>    -7.6128     0.0000     8.0000 </r>
       <r>    -7.4974     0.0000     8.0000 </r>
       <r>    -7.3819     0.0000     8.0000 </r>
       <r>    -7.2665     0.0000     8.0000 </r>
       <r>    -7.1511     0.0000     8.0000 </r>
       <r>    -7.0357     0.0000     8.0000 </r>
       <r>    -6.9202     0.0000     8.0000 </r>
       <r>    -6.8048     0.0000     8.0000 </r>
       <r>    -6.6894     0.0000     8.0000 </r>
       <r>    -6.5740     0.0000     8.0000 </r>
       <r>    -6.4585     0.0000     8.0000 </r>
       <r>    -6.3431     0.0000     8.0000 </r>
       <r>    -6.2277     0.0000     8.0000 </r>
       <r>    -6.1123     0.0000     8.0000 </r>
       <r>    -5.9968     0.0000     8.0000 </r>
       <r>    -5.8814     0.0000     8.0000 </r>
       <r>    -5.7660     0.0000     8.0000 </r>
       <r>    -5.6506     0.0000     8.0000 </r>
       <r>    -5.5352     0.0000     8.0000 </r>
       <r>    -5.4197     0.0000     8.0000 </r>
       <r>    -5.3043     0.0000     8.0000 </r>
       <r>    -5.1889     0.0000     8.0000 </r>
       <r>    -5.0735     0.0000     8.0000 </r>
       <r>    -4.9580     0.0000     8.0000 </r>
       <r>    -4.8426     0.0000     8.0000 </r>
       <r>    -4.7272     0.0000     8.0000 </r>
       <r>    -4.6118     0.0000     8.0000 </r>
       <r>    -4.4963     0.0000     8.0000 </r>
       <r>    -4.3809     0.0000     8.0000 </r>
       <r>    -4.2655     0.0000     8.0000 </r>
       <r>    -4.1501     0.0000     8.0000 </r>
       <r>    -4.0347     0.0000     8.0000 </r>
       <r>    -3.9192     0.0000     8.0000 </r>
       <r>    -3.8038     0.0000     8.0000 </r>
       <r>    -3.6884     0.0000     8.0000 </r>
       <r>    -3.5730     0.0000     8.0000 </r>
       <r>    -3.4575     0.0000     8.0000 </r>
       <r>    -3.3421     0.0000     8.0000 </r>
       <r>    -3.2267     0.0000     8.0000 </r>
       <r>    -3.1113     0.0000     8.0000 </r>
       <r>    -2.9958     0.0000     8.0000 </r>
       <r>    -2.8804     0.0000     8.0000 </r>
       <r>    -2.7650     0.0000     8.0000 </r>
       <r>    -2.6496     0.0000     8.0000 </r>
       <r>    -2.5341    -0.0000     8.0000 </r>
       <r>    -2.4187    -0.0000     8.0000 </r>
       <r>    -2.3033    -0.0000     8.0000 </r>
       <r>    -2.1879    -0.0000     8.0000 </r>
       <r>    -2.0725    -0.0000     8.0000 </r>
       <r>    -1.9570    -0.0000     8.0000 </r>
       <r>    -1.8416    -0.0000     8.0000 </r>
       <r>    -1.7262    -0.0000     8.0000 </r>
       <r>    -1.6108    -0.0001     8.0000 </r>
       <r>    -1.4953    -0.0029     7.9997 </r>
       <r>    -1.3799    -0.0406     7.9950 </r>
       <r>    -1.2645    -0.2416     7.9671 </r>
       <r>    -1.1491    -0.2912     7.9335 </r>
       <r>    -1.0336     2.0422     8.1692 </r>
       <r>    -0.9182     6.8091     8.9551 </r>
       <r>    -0.8028     7.0390     9.7676 </r>
       <r>    -0.6874     2.1539    10.0162 </r>
       <r>    -0.5720    -0.5309     9.9549 </r>
       <r>    -0.4565     1.9166    10.1761 </r>
       <r>    -0.3411     8.8789    11.2010 </r>
       <r>    -0.2257    12.7976    12.6781 </r>
       <r>    -0.1103     8.2200    13.6269 </r>
       <r>     0.0052     4.0724    14.0969 </r>
       <r>     0.1206     4.7983    14.6508 </r>
       <r>     0.2360     4.8501    15.2106 </r>
       <r>     0.3514     2.2282    15.4678 </r>
       <r>     0.4669     0.2619    15.4980 </r>
       <r>     0.5823     1.4458    15.6649 </r>
       <r>     0.6977     3.3013    16.0459 </r>
       <r>     0.8131     2.3983    16.3228 </r>
       <r>     0.9286     1.5979    16.5072 </r>
       <r>     1.0440     2.9491    16.8476 </r>
       <r>     1.1594     2.5025    17.1364 </r>
       <r>     1.2748     1.4799    17.3073 </r>
       <r>     1.3902     4.5941    17.8375 </r>
       <r>     1.5057     7.7167    18.7282 </r>
       <r>     1.6211     6.9125    19.5261 </r>
       <r>     1.7365     6.9836    20.3321 </r>
       <r>     1.8519     9.0422    21.3758 </r>
       <r>     1.9674     7.1904    22.2058 </r>
       <r>     2.0828     2.9453    22.5457 </r>
       <r>     2.1982     7.0393    23.3582 </r>
       <r>     2.3136    17.1026    25.3323 </r>
       <r>     2.4291    18.4304    27.4596 </r>
       <r>     2.5445     9.9528    28.6084 </r>
       <r>     2.6599     2.7820    28.9295 </r>
       <r>     2.7753     3.7125    29.3580 </r>
       <r>     2.8908     8.1591    30.2997 </r>
       <r>     3.0062     8.5162    31.2827 </r>
       <r>     3.1216     4.2711    31.7757 </r>
       <r>     3.2370     0.9090    31.8806 </r>
       <r>     3.3524     0.5354    31.9424 </r>
       <r>     3.4679     0.4838    31.9982 </r>
       <r>     3.5833     0.0797    32.0074 </r>
       <r>     3.6987    -0.0454    32.0022 </r>
       <r>     3.8141    -0.0170    32.0003 </r>
       <r>     3.9296    -0.0021    32.0000 </r>
       <r>     4.0450    -0.0001    32.0000 </r>
       <r>     4.1604    -0.0000    32.0000 </r>
       <r>     4.2758    -0.0000    32.0000 </r>
       <r>     4.3913    -0.0000    32.0000 </r>
       <r>     4.5067    -0.0000    32.0000 </r>
       <r>     4.6221    -0.0000    32.0000 </r>
       <r>     4.7375     0.0000    32.0000 </r>
       <r>     4.8529     0.0000    32.0000 </r>
       <r>     4.9684     0.0000    32.0000 </r>
       <r>     5.0838     0.0000    32.0000 </r>
       <r>     5.1992     0.0000    32.0000 </r>
       <r>     5.3146     0.0000    32.0000 </r>
       <r>     5.4301     0.0000    32.0000 </r>
       <r>     5.5455     0.0000    32.0000 </r>
       <r>     5.6609     0.0000    32.0000 </r>
       <r>     5.7763     0.0000    32.0000 </r>
       <r>     5.8918     0.0000    32.0000 </r>
       <r>     6.0072     0.0000    32.0000 </r>
       <r>     6.1226     0.0000    32.0000 </r>
       <r>     6.2380     0.0000    32.0000 </r>
       <r>     6.3535     0.0000    32.0000 </r>
       <r>     6.4689     0.0000    32.0000 </r>
       <r>     6.5843    -0.0000    32.0000 </r>
       <r>     6.6997    -0.0000    32.0000 </r>
       <r>     6.8151    -0.0000    32.0000 </r>
       <r>     6.9306    -0.0000    32.0000 </r>
       <r>     7.0460    -0.0000    32.0000 </r>
       <r>     7.1614    -0.0000    32.0000 </r>
       <r>     7.2768    -0.0000    32.0000 </r>
       <r>     7.3923    -0.0000    32.0000 </r>
       <r>     7.5077    -0.0000    32.0000 </r>
       <r>     7.6231    -0.0000    32.0000 </r>
       <r>     7.7385    -0.0009    31.9999 </r>
       <r>     7.8540    -0.0066    31.9991 </r>
       <r>     7.9694    -0.0148    31.9974 </r>
       <r>     8.0848     0.0436    32.0025 </r>
       <r>     8.2002     0.2227    32.0282 </r>
       <r>     8.3156     0.2897    32.0616 </r>
       <r>     8.4311     0.1248    32.0760 </r>
       <r>     8.5465    -0.0017    32.0758 </r>
       <r>     8.6619    -0.0123    32.0744 </r>
       <r>     8.7773    -0.0027    32.0741 </r>
       <r>     8.8928    -0.0002    32.0741 </r>
       <r>     9.0082    -0.0000    32.0741 </r>
       <r>     9.1236    -0.0000    32.0741 </r>
       <r>     9.2390    -0.0000    32.0741 </r>
       <r>     9.3545    -0.0000    32.0741 </r>
       <r>     9.4699    -0.0000    32.0741 </r>
       <r>     9.5853    -0.0013    32.0739 </r>
       <r>     9.7007    -0.0154    32.0721 </r>
       <r>     9.8162    -0.0723    32.0638 </r>
       <r>     9.9316    -0.0158    32.0620 </r>
       <r>    10.0470     0.7283    32.1460 </r>
       <r>    10.1624     1.7299    32.3457 </r>
       <r>    10.2778     1.3556    32.5022 </r>
       <r>    10.3933     0.2759    32.5340 </r>
       <r>    10.5087    -0.0881    32.5239 </r>
       <r>    10.6241    -0.0463    32.5185 </r>
       <r>    10.7395    -0.0637    32.5112 </r>
       <r>    10.8550    -0.2389    32.4836 </r>
       <r>    10.9704     0.0398    32.4882 </r>
       <r>    11.0858     2.5352    32.7808 </r>
       <r>    11.2012     5.6434    33.4322 </r>
       <r>    11.3167     4.3893    33.9388 </r>
       <r>    11.4321     0.9520    34.0487 </r>
       <r>    11.5475    -0.2644    34.0182 </r>
       <r>    11.6629    -0.1365    34.0024 </r>
       <r>    11.7784    -0.0199    34.0001 </r>
       <r>    11.8938    -0.0064    33.9994 </r>
       <r>    12.0092    -0.0626    33.9922 </r>
       <r>    12.1246    -0.3018    33.9573 </r>
       <r>    12.2400    -0.1188    33.9436 </r>
       <r>    12.3555     2.9437    34.2834 </r>
       <r>    12.4709     7.4555    35.1439 </r>
       <r>    12.5863     6.2982    35.8709 </r>
       <r>    12.7017     2.0228    36.1044 </r>
       <r>    12.8172     1.2086    36.2438 </r>
       <r>    12.9326     1.3797    36.4031 </r>
       <r>    13.0480     0.3901    36.4481 </r>
       <r>    13.1634    -0.3296    36.4101 </r>
       <r>    13.2789     0.0552    36.4164 </r>
       <r>    13.3943     3.1397    36.7788 </r>
       <r>    13.5097     8.1210    37.7162 </r>
       <r>    13.6251     8.6614    38.7159 </r>
       <r>    13.7405     5.4187    39.3414 </r>
       <r>    13.8560     4.1330    39.8184 </r>
       <r>    13.9714     3.9576    40.2752 </r>
       <r>    14.0868     2.6583    40.5820 </r>
       <r>    14.2022     0.5561    40.6462 </r>
       <r>    14.3177     0.4537    40.6986 </r>
       <r>    14.4331     3.8514    41.1431 </r>
       <r>    14.5485     6.6490    41.9106 </r>
       <r>    14.6639     4.2333    42.3992 </r>
       <r>    14.7794     0.7277    42.4832 </r>
       <r>    14.8948     0.7192    42.5662 </r>
       <r>    15.0102     2.2974    42.8314 </r>
       <r>    15.1256     2.2783    43.0944 </r>
       <r>    15.2411     0.7817    43.1846 </r>
       <r>    15.3565    -0.4606    43.1314 </r>
       <r>    15.4719    -0.3202    43.0945 </r>
       <r>    15.5873     4.2029    43.5796 </r>
       <r>    15.7027    12.5138    45.0240 </r>
       <r>    15.8182    14.5584    46.7043 </r>
       <r>    15.9336     8.2913    47.6613 </r>
       <r>    16.0490     2.4852    47.9482 </r>
       <r>    16.1644     0.1556    47.9662 </r>
       <r>    16.2799    -0.2504    47.9373 </r>
       <r>    16.3953    -0.0951    47.9263 </r>
       <r>    16.5107     0.1248    47.9407 </r>
       <r>    16.6261     0.2937    47.9746 </r>
       <r>    16.7416     0.2079    47.9986 </r>
       <r>    16.8570     0.0339    48.0025 </r>
       <r>    16.9724    -0.0150    48.0008 </r>
       <r>    17.0878    -0.0058    48.0001 </r>
       <r>    17.2033    -0.0007    48.0000 </r>
       <r>    17.3187    -0.0000    48.0000 </r>
       <r>    17.4341    -0.0000    48.0000 </r>
       <r>    17.5495    -0.0000    48.0000 </r>
       <r>    17.6649    -0.0000    48.0000 </r>
       <r>    17.7804    -0.0000    48.0000 </r>
       <r>    17.8958    -0.0000    48.0000 </r>
       <r>    18.0112     0.0000    48.0000 </r>
       <r>    18.1266     0.0000    48.0000 </r>
       <r>    18.2421     0.0000    48.0000 </r>
       <r>    18.3575     0.0000    48.0000 </r>
       <r>    18.4729     0.0000    48.0000 </r>
       <r>    18.5883     0.0000    48.0000 </r>
      </set>
     </set>
    </array>
   </total>
  </dos>
 </calculation>
 <structure name="finalpos" >
  <crystal>
   <varray name="basis" >
    <v>       4.15846780       0.00000000       0.00000000 </v>
    <v>       0.00000000       4.20047253       0.00000000 </v>
    <v>       0.00000000       0.00000000       4.20047253 </v>
   </varray>
   <i name="volume">     73.37187877 </i>
   <varray name="rec_basis" >
    <v>       0.24047319       0.00000000       0.00000000 </v>
    <v>       0.00000000       0.23806845       0.00000000 </v>
    <v>       0.00000000       0.00000000       0.23806845 </v>
   </varray>
  </crystal>
  <varray name="positions" >
   <v>       0.00000000       0.00000000       0.00000000 </v>
   <v>       0.00000000       0.50000000       0.50000000 </v>
   <v>       0.50000000       0.00000000       0.50000000 </v>
   <v>       0.50000000       0.50000000       0.00000000 </v>
   <v>       0.50000000       0.50000000       0.50000000 </v>
   <v>       0.50000000       0.00000000       0.00000000 </v>
   <v>       0.00000000       0.50000000       0.00000000 </v>
   <v>       0.00000000       0.00000000       0.50000000 </v>
  </varray>
 </structure>
</modeling>
